 TITLE= "TESTPLOT" 
 VARIABLES="x","y","fx","fy","magf" 
 ZONE T="1", I=          81 , J=          21
   0.00000000       0.00000000       1.00000000       0.00000000       1.00000000    
   0.00000000       2.50000004E-02   1.00000000       0.00000000       1.00000000    
   0.00000000       7.50000030E-02   1.00000000       0.00000000       1.00000000    
   0.00000000      0.125000000       1.00000000       0.00000000       1.00000000    
   0.00000000      0.175000012       1.00000000       0.00000000       1.00000000    
   0.00000000      0.224999994       1.00000000       0.00000000       1.00000000    
   0.00000000      0.275000006       1.00000000       0.00000000       1.00000000    
   0.00000000      0.324999988       1.00000000       0.00000000       1.00000000    
   0.00000000      0.375000000       1.00000000       0.00000000       1.00000000    
   0.00000000      0.425000012       1.00000000       0.00000000       1.00000000    
   0.00000000      0.475000024       1.00000000       0.00000000       1.00000000    
   0.00000000      0.524999976       1.00000000       0.00000000       1.00000000    
   0.00000000      0.575000048       1.00000000       0.00000000       1.00000000    
   0.00000000      0.625000000       1.00000000       0.00000000       1.00000000    
   0.00000000      0.675000012       1.00000000       0.00000000       1.00000000    
   0.00000000      0.725000024       1.00000000       0.00000000       1.00000000    
   0.00000000      0.774999976       1.00000000       0.00000000       1.00000000    
   0.00000000      0.825000048       1.00000000       0.00000000       1.00000000    
   0.00000000      0.875000000       1.00000000       0.00000000       1.00000000    
   0.00000000      0.925000012       1.00000000       0.00000000       1.00000000    
   0.00000000      0.975000024       1.00000000       0.00000000       1.00000000    
   0.00000000       1.00000000       1.00000000       0.00000000       1.00000000    
   6.25000000E-02   0.00000000      0.500000000       0.00000000      0.500000000    
   6.25000000E-02   2.50000004E-02  0.716381311      0.111084014      0.724942625    
   6.25000000E-02   7.50000030E-02  0.919971824      0.251637697      0.953766048    
   6.25000000E-02  0.125000000       1.01073027      0.274277687       1.04728401    
   6.25000000E-02  0.175000012       1.04560161      0.246671364       1.07430422    
   6.25000000E-02  0.224999994       1.05378938      0.201843828       1.07294595    
   6.25000000E-02  0.275000006       1.05049396      0.155060172       1.06187630    
   6.25000000E-02  0.324999988       1.04348898      0.112397015       1.04952478    
   6.25000000E-02  0.375000000       1.03656030       7.53076673E-02   1.03929234    
   6.25000000E-02  0.425000012       1.03141308       4.30482663E-02   1.03231108    
   6.25000000E-02  0.475000024       1.02873182       1.39203239E-02   1.02882600    
   6.25000000E-02  0.524999976       1.02873850      -1.41376099E-02   1.02883565    
   6.25000000E-02  0.575000048       1.03143167      -4.32756096E-02   1.03233922    
   6.25000000E-02  0.625000000       1.03659117      -7.55545273E-02   1.03934097    
   6.25000000E-02  0.675000012       1.04353416     -0.112674549       1.04959953    
   6.25000000E-02  0.725000024       1.05055642     -0.155380726       1.06198490    
   6.25000000E-02  0.774999976       1.05386758     -0.202220052       1.07309353    
   6.25000000E-02  0.825000048       1.04569423     -0.247114494       1.07449615    
   6.25000000E-02  0.875000000       1.01083231     -0.274795532       1.04751825    
   6.25000000E-02  0.925000012      0.920069873     -0.252220601      0.954014599    
   6.25000000E-02  0.975000024      0.716450691     -0.111388631      0.725057960    
   6.25000000E-02   1.00000000      0.500000000       0.00000000      0.500000000    
  0.187500000       0.00000000       0.00000000       0.00000000       0.00000000    
  0.187500000       2.50000004E-02  0.338618577       3.52736302E-02  0.340450853    
  0.187500000       7.50000030E-02  0.729765058      0.112051159      0.738317311    
  0.187500000      0.125000000      0.947877049      0.180424005      0.964895725    
  0.187500000      0.175000012       1.06122112      0.216722921       1.08312476    
  0.187500000      0.224999994       1.11299610      0.221423686       1.13480783    
  0.187500000      0.275000006       1.13064098      0.202270940       1.14859164    
  0.187500000      0.324999988       1.13128400      0.167563051       1.14362621    
  0.187500000      0.375000000       1.12529540      0.123846784       1.13208997    
  0.187500000      0.425000012       1.11869097       7.55067170E-02   1.12123632    
  0.187500000      0.475000024       1.11470151       2.51411628E-02   1.11498499    
  0.187500000      0.524999976       1.11472046      -2.57759560E-02   1.11501849    
  0.187500000      0.575000048       1.11874580      -7.61506483E-02   1.12133455    
  0.187500000      0.625000000       1.12538481     -0.124508455       1.13225138    
  0.187500000      0.675000012       1.13140726     -0.168248862       1.14384878    
  0.187500000      0.725000024       1.13079739     -0.202982426       1.14887094    
  0.187500000      0.774999976       1.11317730     -0.222157583       1.13512897    
  0.187500000      0.825000048       1.06141710     -0.217470109       1.08346641    
  0.187500000      0.875000000      0.948072433     -0.181168795      0.965227127    
  0.187500000      0.925000012      0.729934812     -0.112767041      0.738594115    
  0.187500000      0.975000024      0.338727474      -3.56199630E-02  0.340595186    
  0.187500000       1.00000000       0.00000000       0.00000000       0.00000000    
  0.312500000       0.00000000       0.00000000       0.00000000       0.00000000    
  0.312500000       2.50000004E-02  0.212849945       1.02656940E-02  0.213097364    
  0.312500000       7.50000030E-02  0.558437288       4.24233302E-02  0.560046375    
  0.312500000      0.125000000      0.813187599       8.61933455E-02  0.817742884    
  0.312500000      0.175000012      0.987254560      0.123102404      0.994899869    
  0.312500000      0.224999994       1.09791529      0.143770635       1.10728860    
  0.312500000      0.275000006       1.16287339      0.145814016       1.17197967    
  0.312500000      0.324999988       1.19742393      0.130924433       1.20456016    
  0.312500000      0.375000000       1.21352816      0.102643177       1.21786129    
  0.312500000      0.425000012       1.21975958       6.50138333E-02   1.22149098    
  0.312500000      0.475000024       1.22157001       2.19556130E-02   1.22176731    
  0.312500000      0.524999976       1.22159386      -2.28726473E-02   1.22180796    
  0.312500000      0.575000048       1.21982908      -6.59289807E-02   1.22160947    
  0.312500000      0.625000000       1.21363783     -0.103554063       1.21804774    
  0.312500000      0.675000012       1.19756556     -0.131826505       1.20479929    
  0.312500000      0.725000024       1.16303563     -0.146699935       1.17225111    
  0.312500000      0.774999976       1.09808362     -0.144631207       1.10756755    
  0.312500000      0.825000048      0.987411857     -0.123927489      0.995158374    
  0.312500000      0.875000000      0.813318729      -8.69737715E-02  0.817955852    
  0.312500000      0.925000012      0.558531344      -4.31466773E-02  0.560195386    
  0.312500000      0.975000024      0.212902144      -1.06109474E-02  0.213166401    
  0.312500000       1.00000000       0.00000000       0.00000000       0.00000000    
  0.437500000       0.00000000       0.00000000       0.00000000       0.00000000    
  0.437500000       2.50000004E-02  0.168334574       2.77165137E-03  0.168357387    
  0.437500000       7.50000030E-02  0.466687143       1.52157675E-02  0.466935128    
  0.437500000      0.125000000      0.715140104       3.70999575E-02  0.716101766    
  0.437500000      0.175000012      0.910246730       5.99577613E-02  0.912219286    
  0.437500000      0.224999994       1.05521286       7.69232213E-02   1.05801296    
  0.437500000      0.275000006       1.15724301       8.39643106E-02   1.16028500    
  0.437500000      0.324999988       1.22512031       7.97788352E-02   1.22771513    
  0.437500000      0.375000000       1.26742506       6.51739687E-02   1.26909971    
  0.437500000      0.425000012       1.29135203       4.23589610E-02   1.29204655    
  0.437500000      0.475000024       1.30200779       1.43568777E-02   1.30208695    
  0.437500000      0.524999976       1.30202413      -1.54099613E-02   1.30211532    
  0.437500000      0.575000048       1.29139853      -4.34016287E-02   1.29212773    
  0.437500000      0.625000000       1.26749396      -6.61955327E-02   1.26922131    
  0.437500000      0.675000012       1.22520018      -8.07677954E-02   1.22785950    
  0.437500000      0.725000024       1.15732026      -8.49100575E-02   1.16043091    
  0.437500000      0.774999976       1.05527544      -7.78176710E-02   1.05814075    
  0.437500000      0.825000048      0.910284519      -6.07956462E-02  0.912312448    
  0.437500000      0.875000000      0.715151429      -3.78802940E-02  0.716153979    
  0.437500000      0.925000012      0.466683328      -1.59353241E-02  0.466955304    
  0.437500000      0.975000024      0.168338403      -3.11519112E-03  0.168367222    
  0.437500000       1.00000000       0.00000000       0.00000000       0.00000000    
  0.562500000       0.00000000       0.00000000       0.00000000       0.00000000    
  0.562500000       2.50000004E-02  0.149404794       3.12533812E-05  0.149404794    
  0.562500000       7.50000030E-02  0.420388520       3.77385947E-03  0.420405447    
  0.562500000      0.125000000      0.657207608       1.33172972E-02  0.657342553    
  0.562500000      0.175000012      0.855936348       2.51009800E-02  0.856304348    
  0.562500000      0.224999994       1.01577616       3.53827216E-02   1.01639223    
  0.562500000      0.275000006       1.13874209       4.12668511E-02   1.13948953    
  0.562500000      0.324999988       1.22877288       4.11428027E-02   1.22946155    
  0.562500000      0.375000000       1.29063797       3.47531326E-02   1.29110575    
  0.562500000      0.425000012       1.32889867       2.30162106E-02   1.32909799    
  0.562500000      0.475000024       1.34707880       7.72339012E-03   1.34710097    
  0.562500000      0.524999976       1.34707880      -8.80788267E-03   1.34710765    
  0.562500000      0.575000048       1.32889795      -2.40857676E-02   1.32911623    
  0.562500000      0.625000000       1.29062867      -3.57937105E-02   1.29112494    
  0.562500000      0.675000012       1.22874665      -4.21417430E-02   1.22946906    
  0.562500000      0.725000024       1.13869131      -4.22140509E-02   1.13947356    
  0.562500000      0.774999976       1.01569724      -3.62715051E-02   1.01634467    
  0.562500000      0.825000048      0.855832219      -2.59290617E-02  0.856224954    
  0.562500000      0.875000000      0.657092512      -1.40879024E-02  0.657243550    
  0.562500000      0.925000012      0.420292675      -4.48689284E-03  0.420316637    
  0.562500000      0.975000024      0.149370149      -3.72609560E-04  0.149370611    
  0.562500000       1.00000000       0.00000000       0.00000000       0.00000000    
  0.687500000       0.00000000       0.00000000       0.00000000       0.00000000    
  0.687500000       2.50000004E-02  0.140229031      -1.12982467E-03  0.140233576    
  0.687500000       7.50000030E-02  0.396091223      -1.38753804E-03  0.396093667    
  0.687500000      0.125000000      0.623926878       1.83570583E-03  0.623929560    
  0.687500000      0.175000012      0.821010470       7.07901176E-03  0.821040988    
  0.687500000      0.224999994      0.985915899       1.24596274E-02  0.985994637    
  0.687500000      0.275000006       1.11870718       1.62834227E-02   1.11882567    
  0.687500000      0.324999988       1.22074795       1.73829645E-02   1.22087169    
  0.687500000      0.375000000       1.29421878       1.53023489E-02   1.29430926    
  0.687500000      0.425000012       1.34149873       1.03187170E-02   1.34153843    
  0.687500000      0.475000024       1.36457276       3.32581252E-03   1.36457682    
  0.687500000      0.524999976       1.36455441      -4.37897304E-03   1.36456144    
  0.687500000      0.575000048       1.34144258      -1.13570709E-02   1.34149063    
  0.687500000      0.625000000       1.29412007      -1.63109023E-02   1.29422283    
  0.687500000      0.675000012       1.22060645      -1.83506086E-02   1.22074437    
  0.687500000      0.725000024       1.11852312      -1.72025040E-02   1.11865532    
  0.687500000      0.774999976      0.985696197      -1.33250300E-02  0.985786259    
  0.687500000      0.825000048      0.820771217      -7.88969640E-03  0.820809126    
  0.687500000      0.875000000      0.623697519      -2.59552104E-03  0.623702943    
  0.687500000      0.925000012      0.395915568       6.79077581E-04  0.395916164    
  0.687500000      0.975000024      0.140163451       7.89364451E-04  0.140165672    
  0.687500000       1.00000000       0.00000000       0.00000000       0.00000000    
  0.812500000       0.00000000       0.00000000       0.00000000       0.00000000    
  0.812500000       2.50000004E-02  0.135245189      -1.64566585E-03  0.135255203    
  0.812500000       7.50000030E-02  0.382248759      -3.76223889E-03  0.382267267    
  0.812500000      0.125000000      0.603766501      -3.64934793E-03  0.603777528    
  0.812500000      0.175000012      0.797982693      -1.87329424E-03  0.797984898    
  0.812500000      0.224999994      0.963610530       6.27487316E-04  0.963610709    
  0.812500000      0.275000006       1.10008848       2.92390981E-03   1.10009241    
  0.812500000      0.324999988       1.20759153       4.28659795E-03   1.20759916    
  0.812500000      0.375000000       1.28686237       4.32439428E-03   1.28686965    
  0.812500000      0.425000012       1.33890343       3.03991558E-03   1.33890688    
  0.812500000      0.475000024       1.36463499       7.97197106E-04   1.36463523    
  0.812500000      0.524999976       1.36459875      -1.78973854E-03   1.36459994    
  0.812500000      0.575000048       1.33879495      -4.01865179E-03   1.33880091    
  0.812500000      0.625000000       1.28668237      -5.27781062E-03   1.28669322    
  0.812500000      0.675000012       1.20734572      -5.20575140E-03   1.20735693    
  0.812500000      0.725000024       1.09978569      -3.80213372E-03   1.09979224    
  0.812500000      0.774999976      0.963268995      -1.46141229E-03  0.963270128    
  0.812500000      0.825000048      0.797628999       1.08388427E-03  0.797629714    
  0.812500000      0.875000000      0.603442192       2.90145539E-03  0.603449166    
  0.812500000      0.925000012      0.382008344       3.05882329E-03  0.382020593    
  0.812500000      0.975000024      0.135154784       1.30640366E-03  0.135161102    
  0.812500000       1.00000000       0.00000000       0.00000000       0.00000000    
  0.937500000       0.00000000       0.00000000       0.00000000       0.00000000    
  0.937500000       2.50000004E-02  0.132119462      -1.87288423E-03  0.132132739    
  0.937500000       7.50000030E-02  0.373314857      -4.83721355E-03  0.373346210    
  0.937500000      0.125000000      0.590162098      -6.20000158E-03  0.590194702    
  0.937500000      0.175000012      0.781375527      -6.14723144E-03  0.781399727    
  0.937500000      0.224999994      0.945884347      -5.16634947E-03  0.945898473    
  0.937500000      0.275000006       1.08296323      -3.77209368E-03   1.08296978    
  0.937500000      0.324999988       1.19228315      -2.41024746E-03   1.19228554    
  0.937500000      0.375000000       1.27387202      -1.37691619E-03   1.27387273    
  0.937500000      0.425000012       1.32798004      -7.75709981E-04   1.32798028    
  0.937500000      0.475000024       1.35490990      -5.22981980E-04   1.35491002    
  0.937500000      0.524999976       1.35485840      -3.99071490E-04   1.35485840    
  0.937500000      0.575000048       1.32782936      -1.36232673E-04   1.32782936    
  0.937500000      0.625000000       1.27362657       4.83321230E-04   1.27362669    
  0.937500000      0.675000012       1.19195271       1.54272479E-03   1.19195366    
  0.937500000      0.725000024       1.08256531       2.93665822E-03   1.08256924    
  0.937500000      0.774999976      0.945446134       4.36577015E-03  0.945456207    
  0.937500000      0.825000048      0.780932784       5.38093038E-03  0.780951321    
  0.937500000      0.875000000      0.589764714       5.46557643E-03  0.589790046    
  0.937500000      0.925000012      0.373025745       4.13984526E-03  0.373048723    
  0.937500000      0.975000024      0.132011384       1.53508899E-03  0.132020310    
  0.937500000       1.00000000       0.00000000       0.00000000       0.00000000    
   1.06250000       0.00000000       0.00000000       0.00000000       0.00000000    
   1.06250000       2.50000004E-02  0.129802793      -1.96921220E-03  0.129817724    
   1.06250000       7.50000030E-02  0.366618723      -5.30429371E-03  0.366657108    
   1.06250000      0.125000000      0.579678297      -7.33485539E-03  0.579724729    
   1.06250000      0.175000012      0.767980218      -8.09163693E-03  0.768022835    
   1.06250000      0.224999994      0.930610895      -7.85601512E-03  0.930644035    
   1.06250000      0.275000006       1.06682730      -6.93638157E-03   1.06684995    
   1.06250000      0.324999988       1.17610478      -5.62200183E-03   1.17611825    
   1.06250000      0.375000000       1.25814366      -4.14107833E-03   1.25815046    
   1.06250000      0.425000012       1.31282234      -2.63606408E-03   1.31282496    
   1.06250000      0.475000024       1.34012341      -1.15999137E-03   1.34012389    
   1.06250000      0.524999976       1.34006143       3.01025750E-04   1.34006155    
   1.06250000      0.575000048       1.31263947       1.78514305E-03   1.31264067    
   1.06250000      0.625000000       1.25784802       3.30463098E-03   1.25785244    
   1.06250000      0.675000012       1.17571092       4.80498467E-03   1.17572081    
   1.06250000      0.725000024       1.06635869       6.14246773E-03   1.06637645    
   1.06250000      0.774999976      0.930101335       7.08600599E-03  0.930128336    
   1.06250000      0.825000048      0.767472744       7.34522380E-03  0.767507911    
   1.06250000      0.875000000      0.579229176       6.61150739E-03  0.579266906    
   1.06250000      0.925000012      0.366295844       4.61101020E-03  0.366324872    
   1.06250000      0.975000024      0.129681945       1.63195073E-03  0.129692212    
   1.06250000       1.00000000       0.00000000       0.00000000       0.00000000    
   1.18750000       0.00000000       0.00000000       0.00000000       0.00000000    
   1.18750000       2.50000004E-02  0.127818555      -2.00539967E-03  0.127834290    
   1.18750000       7.50000030E-02  0.360893846      -5.49052842E-03  0.360935628    
   1.18750000      0.125000000      0.570603371      -7.80531764E-03  0.570656717    
   1.18750000      0.175000012      0.756093860      -8.92038643E-03  0.756146491    
   1.18750000      0.224999994      0.916548371      -9.02816094E-03  0.916592777    
   1.18750000      0.275000006       1.05124474      -8.33945815E-03   1.05127776    
   1.18750000      0.324999988       1.15959311      -7.06482353E-03   1.15961468    
   1.18750000      0.375000000       1.24115610      -5.39377332E-03   1.24116778    
   1.18750000      0.425000012       1.29564500      -3.48064909E-03   1.29564965    
   1.18750000      0.475000024       1.32289076      -1.44119549E-03   1.32289147    
   1.18750000      0.524999976       1.32282186       6.38616271E-04   1.32282197    
   1.18750000      0.575000048       1.29543900       2.68320646E-03   1.29544175    
   1.18750000      0.625000000       1.24082494       4.60581435E-03   1.24083352    
   1.18750000      0.675000012       1.15915442       6.28979132E-03   1.15917146    
   1.18750000      0.725000024       1.05072737       7.57931219E-03   1.05075467    
   1.18750000      0.774999976      0.915990710       8.28376412E-03  0.916028142    
   1.18750000      0.825000048      0.755543113       8.19231011E-03  0.755587518    
   1.18750000      0.875000000      0.570120215       7.09340395E-03  0.570164323    
   1.18750000      0.925000012      0.360548615       4.80324263E-03  0.360580593    
   1.18750000      0.975000024      0.127689645       1.67012122E-03  0.127700567    
   1.18750000       1.00000000       0.00000000       0.00000000       0.00000000    
   1.31250000       0.00000000       0.00000000       0.00000000       0.00000000    
   1.31250000       2.50000004E-02  0.125957251      -2.01856485E-03  0.125973433    
   1.31250000       7.50000030E-02  0.355559886      -5.55941742E-03  0.355603337    
   1.31250000      0.125000000      0.562123537      -7.98432622E-03  0.562180221    
   1.31250000      0.175000012      0.744870603      -9.24444571E-03  0.744928002    
   1.31250000      0.224999994      0.903042197      -9.49690118E-03  0.903092146    
   1.31250000      0.275000006       1.03594089      -8.91114119E-03   1.03597915    
   1.31250000      0.324999988       1.14296341      -7.66079873E-03   1.14298904    
   1.31250000      0.375000000       1.22362387      -5.91486180E-03   1.22363818    
   1.31250000      0.425000012       1.27756453      -3.83058470E-03   1.27757025    
   1.31250000      0.475000024       1.30455351      -1.55103230E-03   1.30455446    
   1.31250000      0.524999976       1.30447984       7.93105399E-04   1.30448008    
   1.31250000      0.575000048       1.27734470       3.07566440E-03   1.27734840    
   1.31250000      0.625000000       1.22327054       5.16519230E-03   1.22328150    
   1.31250000      0.675000012       1.14249754       6.91848574E-03   1.14251852    
   1.31250000      0.725000024       1.03539443       8.17731954E-03   1.03542674    
   1.31250000      0.774999976      0.902455926       8.77192151E-03  0.902498543    
   1.31250000      0.825000048      0.744295478       8.52849614E-03  0.744344354    
   1.31250000      0.875000000      0.561621726       7.27784866E-03  0.561668873    
   1.31250000      0.925000012      0.355203062       4.87265596E-03  0.355236471    
   1.31250000      0.975000024      0.125824317       1.68257218E-03  0.125835568    
   1.31250000       1.00000000       0.00000000       0.00000000       0.00000000    
   1.43750000       0.00000000       0.00000000       0.00000000       0.00000000    
   1.43750000       2.50000004E-02  0.124133751      -2.02060980E-03  0.124150194    
   1.43750000       7.50000030E-02  0.350365102      -5.57666877E-03  0.350409478    
   1.43750000      0.125000000      0.553871751      -8.03828798E-03  0.553930104    
   1.43750000      0.175000012      0.733915210      -9.35137272E-03  0.733974814    
   1.43750000      0.224999994      0.889771879      -9.66000278E-03  0.889824331    
   1.43750000      0.275000006       1.02076626      -9.11695138E-03   1.02080691    
   1.43750000      0.324999988       1.12629962      -7.88054615E-03   1.12632716    
   1.43750000      0.375000000       1.20587468      -6.10932708E-03   1.20589018    
   1.43750000      0.425000012       1.25911057      -3.96016333E-03   1.25911689    
   1.43750000      0.475000024       1.28575420      -1.58657611E-03   1.28575516    
   1.43750000      0.524999976       1.28567815       8.61880602E-04   1.28567839    
   1.43750000      0.575000048       1.25888419       3.23666586E-03   1.25888836    
   1.43750000      0.625000000       1.20550990       5.38788596E-03   1.20552194    
   1.43750000      0.675000012       1.12582064       7.16241915E-03   1.12584341    
   1.43750000      0.725000024       1.02020597       8.40273593E-03   1.02024055    
   1.43750000      0.774999976      0.889172792       8.94927606E-03  0.889217854    
   1.43750000      0.825000048      0.733330131       8.64460319E-03  0.733381093    
   1.43750000      0.875000000      0.553363144       7.33750267E-03  0.553411782    
   1.43750000      0.925000012      0.350004733       4.89322050E-03  0.350038946    
   1.43750000      0.975000024      0.123998396       1.68574660E-03  0.124009855    
   1.43750000       1.00000000       0.00000000       0.00000000       0.00000000    
   1.56250000       0.00000000       0.00000000       0.00000000       0.00000000    
   1.56250000       2.50000004E-02  0.122315437      -2.02069734E-03  0.122332126    
   1.56250000       7.50000030E-02  0.345207661      -5.57863200E-03  0.345252723    
   1.56250000      0.125000000      0.545692444      -8.04746337E-03  0.545751810    
   1.56250000      0.175000012      0.723054886      -9.37453657E-03  0.723115623    
   1.56250000      0.224999994      0.876592398      -9.70111135E-03  0.876646101    
   1.56250000      0.275000006       1.00564766      -9.17369593E-03   1.00568950    
   1.56250000      0.324999988       1.10963202      -7.94373825E-03   1.10966039    
   1.56250000      0.375000000       1.18805075      -6.16571400E-03   1.18806672    
   1.56250000      0.425000012       1.24052024      -3.99615802E-03   1.24052668    
   1.56250000      0.475000024       1.26678228      -1.59203261E-03   1.26678324    
   1.56250000      0.524999976       1.26670480       8.90173425E-04   1.26670516    
   1.56250000      0.575000048       1.24029136       3.29433847E-03   1.24029577    
   1.56250000      0.625000000       1.18768167       5.46415895E-03   1.18769419    
   1.56250000      0.675000012       1.10914826       7.24230660E-03   1.10917187    
   1.56250000      0.725000024       1.00508285       8.47246405E-03   1.00511861    
   1.56250000      0.774999976      0.875990510       9.00027528E-03  0.876036763    
   1.56250000      0.825000048      0.722468495       8.67483020E-03  0.722520590    
   1.56250000      0.875000000      0.545184135       7.35068507E-03  0.545233667    
   1.56250000      0.925000012      0.344848216       4.89669014E-03  0.344882965    
   1.56250000      0.975000024      0.122181222       1.68615370E-03  0.122192852    
   1.56250000       1.00000000       0.00000000       0.00000000       0.00000000    
   1.68750000       0.00000000       0.00000000       0.00000000       0.00000000    
   1.68750000       2.50000004E-02  0.120492563      -2.01903656E-03  0.120509475    
   1.68750000       7.50000030E-02  0.340051472      -5.57429530E-03  0.340097159    
   1.68750000      0.125000000      0.537526727      -8.04234482E-03  0.537586868    
   1.68750000      0.175000012      0.712218881      -9.37097892E-03  0.712280512    
   1.68750000      0.224999994      0.863440990      -9.70095210E-03  0.863495529    
   1.68750000      0.275000006      0.990549505      -9.17769875E-03  0.990592003    
   1.68750000      0.324999988       1.09296727      -7.95088895E-03   1.09299612    
   1.68750000      0.375000000       1.17020679      -6.17300253E-03   1.17022312    
   1.68750000      0.425000012       1.22188938      -3.99980135E-03   1.22189593    
   1.68750000      0.475000024       1.24775708      -1.58892048E-03   1.24775815    
   1.68750000      0.524999976       1.24767947       9.01308609E-04   1.24767983    
   1.68750000      0.575000048       1.22166061       3.31164757E-03   1.22166514    
   1.68750000      0.625000000       1.16983891       5.48352674E-03   1.16985178    
   1.68750000      0.675000012       1.09248483       7.25990999E-03   1.09250891    
   1.68750000      0.725000024      0.989987016       8.48523714E-03  0.990023375    
   1.68750000      0.774999976      0.862842917       9.00651142E-03  0.862889946    
   1.68750000      0.825000048      0.711637259       8.67518410E-03  0.711690128    
   1.68750000      0.875000000      0.537023544       7.34787574E-03  0.537073791    
   1.68750000      0.925000012      0.339696586       4.89362609E-03  0.339731842    
   1.68750000      0.975000024      0.120361075       1.68480852E-03  0.120372869    
   1.68750000       1.00000000       0.00000000       0.00000000       0.00000000    
   1.81250000       0.00000000       0.00000000       0.00000000       0.00000000    
   1.81250000       2.50000004E-02  0.118664563      -2.01822841E-03  0.118681729    
   1.81250000       7.50000030E-02  0.334888011      -5.57094719E-03  0.334934354    
   1.81250000      0.125000000      0.529356956      -8.03525932E-03  0.529417932    
   1.81250000      0.175000012      0.701383233      -9.36101004E-03  0.701445699    
   1.81250000      0.224999994      0.850293875      -9.69018415E-03  0.850349069    
   1.81250000      0.275000006      0.975456774      -9.16758366E-03  0.975499868    
   1.81250000      0.324999988       1.07630563      -7.94203207E-03   1.07633495    
   1.81250000      0.375000000       1.15236139      -6.16566185E-03   1.15237784    
   1.81250000      0.425000012       1.20325184      -3.99385765E-03   1.20325851    
   1.81250000      0.475000024       1.22872233      -1.58429972E-03   1.22872341    
   1.81250000      0.524999976       1.22864640       9.04406537E-04   1.22864676    
   1.81250000      0.575000048       1.20302606       3.31312977E-03   1.20303059    
   1.81250000      0.625000000       1.15199804       5.48303872E-03   1.15201104    
   1.81250000      0.675000012       1.07582927       7.25689251E-03   1.07585371    
   1.81250000      0.725000024      0.974901497       8.47956445E-03  0.974938393    
   1.81250000      0.774999976      0.849704146       8.99950974E-03  0.849751830    