 TITLE= "TESTPLOT" 
 VARIABLES="x","y","fx","fy","magf" 
 ZONE T="1", I=          81 , J=          21
   0.00000000       0.00000000       1.00000000       0.00000000       1.00000000    
   0.00000000       2.50000004E-02   1.00000000       0.00000000       1.00000000    
   0.00000000       7.50000030E-02   1.00000000       0.00000000       1.00000000    
   0.00000000      0.125000000       1.00000000       0.00000000       1.00000000    
   0.00000000      0.175000012       1.00000000       0.00000000       1.00000000    
   0.00000000      0.224999994       1.00000000       0.00000000       1.00000000    
   0.00000000      0.275000006       1.00000000       0.00000000       1.00000000    
   0.00000000      0.324999988       1.00000000       0.00000000       1.00000000    
   0.00000000      0.375000000       1.00000000       0.00000000       1.00000000    
   0.00000000      0.425000012       1.00000000       0.00000000       1.00000000    
   0.00000000      0.475000024       1.00000000       0.00000000       1.00000000    
   0.00000000      0.524999976       1.00000000       0.00000000       1.00000000    
   0.00000000      0.575000048       1.00000000       0.00000000       1.00000000    
   0.00000000      0.625000000       1.00000000       0.00000000       1.00000000    
   0.00000000      0.675000012       1.00000000       0.00000000       1.00000000    
   0.00000000      0.725000024       1.00000000       0.00000000       1.00000000    
   0.00000000      0.774999976       1.00000000       0.00000000       1.00000000    
   0.00000000      0.825000048       1.00000000       0.00000000       1.00000000    
   0.00000000      0.875000000       1.00000000       0.00000000       1.00000000    
   0.00000000      0.925000012       1.00000000       0.00000000       1.00000000    
   0.00000000      0.975000024       1.00000000       0.00000000       1.00000000    
   0.00000000       1.00000000       1.00000000       0.00000000       1.00000000    
   6.25000000E-02   0.00000000      0.500000000       0.00000000      0.500000000    
   6.25000000E-02   2.50000004E-02  0.716353595      0.111078031      0.724914372    
   6.25000000E-02   7.50000030E-02  0.919925213      0.251625985      0.953718007    
   6.25000000E-02  0.125000000       1.01068091      0.274267554       1.04723382    
   6.25000000E-02  0.175000012       1.04555357      0.246663690       1.07425570    
   6.25000000E-02  0.224999994       1.05374289      0.201837674       1.07289910    
   6.25000000E-02  0.275000006       1.05044866      0.155054539       1.06183064    
   6.25000000E-02  0.324999988       1.04344344      0.112391591       1.04947901    
   6.25000000E-02  0.375000000       1.03651452       7.53025636E-02   1.03924632    
   6.25000000E-02  0.425000012       1.03136754       4.30437103E-02   1.03226542    
   6.25000000E-02  0.475000024       1.02868581       1.39162475E-02   1.02877998    
   6.25000000E-02  0.524999976       1.02869153      -1.41408248E-02   1.02878869    
   6.25000000E-02  0.575000048       1.03138554      -4.32779938E-02   1.03229308    
   6.25000000E-02  0.625000000       1.03654563      -7.55566284E-02   1.03929579    
   6.25000000E-02  0.675000012       1.04348898     -0.112676442       1.04955482    
   6.25000000E-02  0.725000024       1.05051053     -0.155382067       1.06193972    
   6.25000000E-02  0.774999976       1.05382133     -0.202220485       1.07304823    
   6.25000000E-02  0.825000048       1.04564679     -0.247113705       1.07444978    
   6.25000000E-02  0.875000000       1.01078296     -0.274792016       1.04746974    
   6.25000000E-02  0.925000012      0.920023263     -0.252214491      0.953968048    
   6.25000000E-02  0.975000024      0.716423213     -0.111385234      0.725030243    
   6.25000000E-02   1.00000000      0.500000000       0.00000000      0.500000000    
  0.187500000       0.00000000       0.00000000       0.00000000       0.00000000    
  0.187500000       2.50000004E-02  0.338535309       3.52674611E-02  0.340367377    
  0.187500000       7.50000030E-02  0.729621053      0.112040401      0.738173366    
  0.187500000      0.125000000      0.947725058      0.180417538      0.964745224    
  0.187500000      0.175000012       1.06107533      0.216720343       1.08298135    
  0.187500000      0.224999994       1.11285675      0.221422166       1.13467085    
  0.187500000      0.275000006       1.13050497      0.202269226       1.14845741    
  0.187500000      0.324999988       1.13114786      0.167560771       1.14349115    
  0.187500000      0.375000000       1.12515891      0.123843580       1.13195395    
  0.187500000      0.425000012       1.11855459       7.55031705E-02   1.12109995    
  0.187500000      0.475000024       1.11456466       2.51376666E-02   1.11484814    
  0.187500000      0.524999976       1.11458254      -2.57796552E-02   1.11488056    
  0.187500000      0.575000048       1.11860895      -7.61548877E-02   1.12119830    
  0.187500000      0.625000000       1.12524891     -0.124513388       1.13211691    
  0.187500000      0.675000012       1.13127220     -0.168254256       1.14371598    
  0.187500000      0.725000024       1.13066125     -0.202988297       1.14873803    
  0.187500000      0.774999976       1.11303926     -0.222163394       1.13499475    
  0.187500000      0.825000048       1.06127322     -0.217474148       1.08332622    
  0.187500000      0.875000000      0.947921753     -0.181168661      0.965079129    
  0.187500000      0.925000012      0.729792237     -0.112762228      0.738452494    
  0.187500000      0.975000024      0.338644832      -3.56166363E-02  0.340512633    
  0.187500000       1.00000000       0.00000000       0.00000000       0.00000000    
  0.312500000       0.00000000       0.00000000       0.00000000       0.00000000    
  0.312500000       2.50000004E-02  0.212710351       1.02597717E-02  0.212957636    
  0.312500000       7.50000030E-02  0.558192790       4.24130112E-02  0.559801817    
  0.312500000      0.125000000      0.812929034       8.61871168E-02  0.817485094    
  0.312500000      0.175000012      0.987009287      0.123099834      0.994656146    
  0.312500000      0.224999994       1.09768248      0.143769041       1.10705757    
  0.312500000      0.275000006       1.16264617      0.145812422       1.17175388    
  0.312500000      0.324999988       1.19719803      0.130922824       1.20433545    
  0.312500000      0.375000000       1.21330225      0.102641277       1.21763611    
  0.312500000      0.425000012       1.21953368       6.50116727E-02   1.22126532    
  0.312500000      0.475000024       1.22134387       2.19532270E-02   1.22154117    
  0.312500000      0.524999976       1.22136736      -2.28757318E-02   1.22158158    
  0.312500000      0.575000048       1.21960354      -6.59330785E-02   1.22138453    
  0.312500000      0.625000000       1.21341336     -0.103558853       1.21782446    
  0.312500000      0.675000012       1.19734156     -0.131831944       1.20457733    
  0.312500000      0.725000024       1.16281044     -0.146705940       1.17202854    
  0.312500000      0.774999976       1.09785366     -0.144637167       1.10734034    
  0.312500000      0.825000048      0.987169862     -0.123931780      0.994918823    
  0.312500000      0.875000000      0.813063741      -8.69737715E-02  0.817702353    
  0.312500000      0.925000012      0.558289707      -4.31419797E-02  0.559954166    
  0.312500000      0.975000024      0.212763846      -1.06076933E-02  0.213028118    
  0.312500000       1.00000000       0.00000000       0.00000000       0.00000000    
  0.437500000       0.00000000       0.00000000       0.00000000       0.00000000    
  0.437500000       2.50000004E-02  0.168138713       2.76613515E-03  0.168161467    
  0.437500000       7.50000030E-02  0.466344297       1.52059002E-02  0.466592133    
  0.437500000      0.125000000      0.714776754       3.70938256E-02  0.715738595    
  0.437500000      0.175000012      0.909902513       5.99557534E-02  0.911875665    
  0.437500000      0.224999994       1.05488646       7.69230276E-02   1.05768740    
  0.437500000      0.275000006       1.15692461       8.39641467E-02   1.15996742    
  0.437500000      0.324999988       1.22480512       7.97781423E-02   1.22740054    
  0.437500000      0.375000000       1.26710963       6.51727095E-02   1.26878452    
  0.437500000      0.425000012       1.29103661       4.23569046E-02   1.29173124    
  0.437500000      0.475000024       1.30169201       1.43540082E-02   1.30177116    
  0.437500000      0.524999976       1.30170858      -1.54136335E-02   1.30179989    
  0.437500000      0.575000048       1.29108417      -4.34061959E-02   1.29181361    
  0.437500000      0.625000000       1.26717985      -6.62004352E-02   1.26890790    
  0.437500000      0.675000012       1.22488689      -8.07731748E-02   1.22754717    
  0.437500000      0.725000024       1.15700531      -8.49162489E-02   1.16011727    
  0.437500000      0.774999976       1.05495298      -7.78237879E-02   1.05781960    
  0.437500000      0.825000048      0.909944296      -6.07997924E-02  0.911973298    
  0.437500000      0.875000000      0.714792371      -3.78798842E-02  0.715795398    
  0.437500000      0.925000012      0.466343701      -1.59302466E-02  0.466615707    
  0.437500000      0.975000024      0.168144971      -3.11181229E-03  0.168173760    
  0.437500000       1.00000000       0.00000000       0.00000000       0.00000000    
  0.562500000       0.00000000       0.00000000       0.00000000       0.00000000    
  0.562500000       2.50000004E-02  0.149154723       2.50490848E-05  0.149154723    
  0.562500000       7.50000030E-02  0.419947982       3.76264844E-03  0.419964820    
  0.562500000      0.125000000      0.656740606       1.33097079E-02  0.656875432    
  0.562500000      0.175000012      0.855494022       2.50973869E-02  0.855862081    
  0.562500000      0.224999994       1.01535654       3.53813544E-02   1.01597273    
  0.562500000      0.275000006       1.13833380       4.12661359E-02   1.13908148    
  0.562500000      0.324999988       1.22836828       4.11416739E-02   1.22905707    
  0.562500000      0.375000000       1.29023337       3.47512588E-02   1.29070127    
  0.562500000      0.425000012       1.32849407       2.30136849E-02   1.32869339    
  0.562500000      0.475000024       1.34667313       7.72048533E-03   1.34669530    
  0.562500000      0.524999976       1.34667420      -8.81094858E-03   1.34670305    
  0.562500000      0.575000048       1.32849383      -2.40891278E-02   1.32871222    
  0.562500000      0.625000000       1.29022503      -3.57976630E-02   1.29072154    
  0.562500000      0.675000012       1.22834384      -4.21467535E-02   1.22906673    
  0.562500000      0.725000024       1.13828635      -4.22197580E-02   1.13906908    
  0.562500000      0.774999976       1.01528168      -3.62766795E-02   1.01592958    
  0.562500000      0.825000048      0.855394006      -2.59325057E-02  0.855787039    
  0.562500000      0.875000000      0.656630039      -1.40876388E-02  0.656781137    
  0.562500000      0.925000012      0.419855595      -4.48214775E-03  0.419879526    
  0.562500000      0.975000024      0.149122477      -3.69267160E-04  0.149122939    
  0.562500000       1.00000000       0.00000000       0.00000000       0.00000000    
  0.687500000       0.00000000       0.00000000       0.00000000       0.00000000    
  0.687500000       2.50000004E-02  0.139924824      -1.13547698E-03  0.139929429    
  0.687500000       7.50000030E-02  0.395553410      -1.39769085E-03  0.395555884    
  0.687500000      0.125000000      0.623357415       1.82884722E-03  0.623360097    
  0.687500000      0.175000012      0.820471048       7.07570929E-03  0.820501566    
  0.687500000      0.224999994      0.985404849       1.24580320E-02  0.985483587    
  0.687500000      0.275000006       1.11821020       1.62817016E-02   1.11832869    
  0.687500000      0.324999988       1.22025478       1.73802469E-02   1.22037852    
  0.687500000      0.375000000       1.29372537       1.52992122E-02   1.29381585    
  0.687500000      0.425000012       1.34100533       1.03158448E-02   1.34104502    
  0.687500000      0.475000024       1.36407804       3.32303462E-03   1.36408210    
  0.687500000      0.524999976       1.36406040      -4.38129576E-03   1.36406744    
  0.687500000      0.575000048       1.34094930      -1.13591906E-02   1.34099746    
  0.687500000      0.625000000       1.29362881      -1.63140781E-02   1.29373169    
  0.687500000      0.675000012       1.22011507      -1.83549114E-02   1.22025311    
  0.687500000      0.725000024       1.11802852      -1.72071867E-02   1.11816096    
  0.687500000      0.774999976      0.985188425      -1.33296419E-02  0.985278606    
  0.687500000      0.825000048      0.820235729      -7.89301563E-03  0.820273697    
  0.687500000      0.875000000      0.623131931      -2.59528821E-03  0.623137355    
  0.687500000      0.925000012      0.395381063       6.83401595E-04  0.395381659    
  0.687500000      0.975000024      0.139860839       7.92383333E-04  0.139863089    
  0.687500000       1.00000000       0.00000000       0.00000000       0.00000000    
  0.812500000       0.00000000       0.00000000       0.00000000       0.00000000    
  0.812500000       2.50000004E-02  0.134886876      -1.65151386E-03  0.134896979    
  0.812500000       7.50000030E-02  0.381615698      -3.77278775E-03  0.381634325    
  0.812500000      0.125000000      0.603096247      -3.65647255E-03  0.603107333    
  0.812500000      0.175000012      0.797347546      -1.87662791E-03  0.797349751    
  0.812500000      0.224999994      0.963009298       6.25967281E-04  0.963009477    
  0.812500000      0.275000006       1.09950352       2.92238407E-03   1.09950745    
  0.812500000      0.324999988       1.20701146       4.28400841E-03   1.20701909    
  0.812500000      0.375000000       1.28628182       4.32077423E-03   1.28628910    
  0.812500000      0.425000012       1.33832192       3.03640123E-03   1.33832538    
  0.812500000      0.475000024       1.36405230       7.94529216E-04   1.36405253    
  0.812500000      0.524999976       1.36401665      -1.79186987E-03   1.36401784    
  0.812500000      0.575000048       1.33821404      -4.02107509E-03   1.33822012    
  0.812500000      0.625000000       1.28610349      -5.28078992E-03   1.28611434    
  0.812500000      0.675000012       1.20676661      -5.20938681E-03   1.20677781    
  0.812500000      0.725000024       1.09920275      -3.80620826E-03   1.09920943    
  0.812500000      0.774999976      0.962670505      -1.46502315E-03  0.962671638    
  0.812500000      0.825000048      0.796997547       1.08209008E-03  0.796998322    
  0.812500000      0.875000000      0.602775455       2.90335296E-03  0.602782488    
  0.812500000      0.925000012      0.381378353       3.06433090E-03  0.381390661    
  0.812500000      0.975000024      0.134797603       1.30980427E-03  0.134803966    
  0.812500000       1.00000000       0.00000000       0.00000000       0.00000000    
  0.937500000       0.00000000       0.00000000       0.00000000       0.00000000    
  0.937500000       2.50000004E-02  0.131708652      -1.87879847E-03  0.131722048    
  0.937500000       7.50000030E-02  0.372587502      -4.84788325E-03  0.372619033    
  0.937500000      0.125000000      0.589391470      -6.20710570E-03  0.589424133    
  0.937500000      0.175000012      0.780645490      -6.15070015E-03  0.780669749    
  0.937500000      0.224999994      0.945193410      -5.16820280E-03  0.945207536    
  0.937500000      0.275000006       1.08229113      -3.77344224E-03   1.08229768    
  0.937500000      0.324999988       1.19161725      -2.41161557E-03   1.19161975    
  0.937500000      0.375000000       1.27320552      -1.37872936E-03   1.27320623    
  0.937500000      0.425000012       1.32731175      -7.77983165E-04   1.32731199    
  0.937500000      0.475000024       1.35424042      -5.25460753E-04   1.35424054    
  0.937500000      0.524999976       1.35418987      -4.01953381E-04   1.35418987    
  0.937500000      0.575000048       1.32716179      -1.39540862E-04   1.32716179    
  0.937500000      0.625000000       1.27296042       4.80133865E-04   1.27296054    
  0.937500000      0.675000012       1.19128704       1.53967296E-03   1.19128799    
  0.937500000      0.725000024       1.08189511       2.93330755E-03   1.08189905    
  0.937500000      0.774999976      0.944757521       4.36238432E-03  0.944767594    
  0.937500000      0.825000048      0.780205965       5.37902210E-03  0.780224502    
  0.937500000      0.875000000      0.588997245       5.46748424E-03  0.589022636    
  0.937500000      0.925000012      0.372300476       4.14561573E-03  0.372323573    
  0.937500000      0.975000024      0.131600425       1.53863477E-03  0.131609425    
  0.937500000       1.00000000       0.00000000       0.00000000       0.00000000    
   1.06250000       0.00000000       0.00000000       0.00000000       0.00000000    
   1.06250000       2.50000004E-02  0.129338831      -1.97466253E-03  0.129353896    
   1.06250000       7.50000030E-02  0.365797698      -5.31411637E-03  0.365836293    
   1.06250000      0.125000000      0.578808069      -7.34116323E-03  0.578854620    
   1.06250000      0.175000012      0.767155886      -8.09428655E-03  0.767198563    
   1.06250000      0.224999994      0.929831028      -7.85736926E-03  0.929864228    
   1.06250000      0.275000006       1.06606901      -6.93742279E-03   1.06609154    
   1.06250000      0.324999988       1.17535269      -5.62287774E-03   1.17536616    
   1.06250000      0.375000000       1.25739086      -4.14241012E-03   1.25739765    
   1.06250000      0.425000012       1.31206727      -2.63778167E-03   1.31206989    
   1.06250000      0.475000024       1.33936715      -1.16162351E-03   1.33936763    
   1.06250000      0.524999976       1.33930576       2.99424952E-04   1.33930576    
   1.06250000      0.575000048       1.31188560       1.78284082E-03   1.31188679    
   1.06250000      0.625000000       1.25709605       3.30154179E-03   1.25710034    
   1.06250000      0.675000012       1.17495990       4.80129104E-03   1.17496967    
   1.06250000      0.725000024       1.06560254       6.13836385E-03   1.06562018    
   1.06250000      0.774999976      0.929323912       7.08250981E-03  0.929350913    
   1.06250000      0.825000048      0.766651809       7.34355394E-03  0.766687036    
   1.06250000      0.875000000      0.578361928       6.61334442E-03  0.578399718    
   1.06250000      0.925000012      0.365476131       4.61651944E-03  0.365505278    
   1.06250000      0.975000024      0.129218206       1.63542328E-03  0.129228562    
   1.06250000       1.00000000       0.00000000       0.00000000       0.00000000    
   1.18750000       0.00000000       0.00000000       0.00000000       0.00000000    
   1.18750000       2.50000004E-02  0.127301812      -2.01144535E-03  0.127317712    
   1.18750000       7.50000030E-02  0.359980136      -5.50154550E-03  0.360022157    
   1.18750000      0.125000000      0.569635153      -7.81276636E-03  0.569688737    
   1.18750000      0.175000012      0.755176306      -8.92355107E-03  0.755229056    
   1.18750000      0.224999994      0.915680468      -9.02878772E-03  0.915724993    
   1.18750000      0.275000006       1.05040073      -8.33928213E-03   1.05043375    
   1.18750000      0.324999988       1.15875518      -7.06482120E-03   1.15877676    
   1.18750000      0.375000000       1.24031782      -5.39433723E-03   1.24032950    
   1.18750000      0.425000012       1.29480445      -3.48177529E-03   1.29480910    
   1.18750000      0.475000024       1.32204938      -1.44274835E-03   1.32205009    
   1.18750000      0.524999976       1.32198024       6.36518467E-04   1.32198036    
   1.18750000      0.575000048       1.29460001       2.68039573E-03   1.29460275    
   1.18750000      0.625000000       1.23998821       4.60228231E-03   1.23999679    
   1.18750000      0.675000012       1.15831959       6.28559571E-03   1.15833664    
   1.18750000      0.725000024       1.04988682       7.57486187E-03   1.04991412    
   1.18750000      0.774999976      0.915126264       8.27999320E-03  0.915163755    
   1.18750000      0.825000048      0.754630268       8.19049403E-03  0.754674673    
   1.18750000      0.875000000      0.569156170       7.09534995E-03  0.569200397    
   1.18750000      0.925000012      0.359637499       4.80857864E-03  0.359669656    
   1.18750000      0.975000024      0.127173722       1.67327002E-03  0.127184734    
   1.18750000       1.00000000       0.00000000       0.00000000       0.00000000    
   1.31250000       0.00000000       0.00000000       0.00000000       0.00000000    
   1.31250000       2.50000004E-02  0.125388816      -2.02357210E-03  0.125405133    
   1.31250000       7.50000030E-02  0.354554981      -5.56827709E-03  0.354598701    
   1.31250000      0.125000000      0.561058939      -7.98959471E-03  0.561115801    
   1.31250000      0.175000012      0.743861675      -9.24594887E-03  0.743919134    
   1.31250000      0.224999994      0.902087688      -9.49686207E-03  0.902137637    
   1.31250000      0.275000006       1.03501284      -8.91115889E-03   1.03505123    
   1.31250000      0.324999988       1.14204216      -7.66146462E-03   1.14206779    
   1.31250000      0.375000000       1.22270203      -5.91640081E-03   1.22271633    
   1.31250000      0.425000012       1.27664018      -3.83276213E-03   1.27664590    
   1.31250000      0.475000024       1.30362773      -1.55304768E-03   1.30362868    
   1.31250000      0.524999976       1.30355382       7.91363127E-04   1.30355406    
   1.31250000      0.575000048       1.27642155       3.07385135E-03   1.27642524    
   1.31250000      0.625000000       1.22235024       5.16313175E-03   1.22236121    
   1.31250000      0.675000012       1.14157963       6.91585708E-03   1.14160061    
   1.31250000      0.725000024       1.03446984       8.17403477E-03   1.03450215    
   1.31250000      0.774999976      0.901505291       8.76846164E-03  0.901547909    
   1.31250000      0.825000048      0.743291140       8.52647144E-03  0.743340075    
   1.31250000      0.875000000      0.560561240       7.27987429E-03  0.560608506    
   1.31250000      0.925000012      0.354200900       4.87865275E-03  0.354234487    
   1.31250000      0.975000024      0.125256643       1.68618746E-03  0.125267982    
   1.31250000       1.00000000       0.00000000       0.00000000       0.00000000    
   1.43750000       0.00000000       0.00000000       0.00000000       0.00000000    
   1.43750000       2.50000004E-02  0.123514727      -2.02609249E-03  0.123531342    
   1.43750000       7.50000030E-02  0.349270672      -5.58614731E-03  0.349315345    
   1.43750000      0.125000000      0.552712321      -8.04369990E-03  0.552770853    
   1.43750000      0.175000012      0.732817054      -9.35268588E-03  0.732876778    
   1.43750000      0.224999994      0.888733149      -9.65973549E-03  0.888785601    
   1.43750000      0.275000006       1.01975620      -9.11671668E-03   1.01979697    
   1.43750000      0.324999988       1.12529695      -7.88048841E-03   1.12532449    
   1.43750000      0.375000000       1.20487082      -6.10970240E-03   1.20488632    
   1.43750000      0.425000012       1.25810409      -3.96115985E-03   1.25811028    
   1.43750000      0.475000024       1.28474557      -1.58810907E-03   1.28474653    
   1.43750000      0.524999976       1.28466940       8.59548396E-04   1.28466964    
   1.43750000      0.575000048       1.25787783       3.23382253E-03   1.25788200    
   1.43750000      0.625000000       1.20450747       5.38497930E-03   1.20451951    
   1.43750000      0.675000012       1.12481999       7.15909805E-03   1.12484276    
   1.43750000      0.725000024       1.01919866       8.39894917E-03   1.01923323    
   1.43750000      0.774999976      0.888137102       8.94580409E-03  0.888182163    
   1.43750000      0.825000048      0.732235312       8.64309818E-03  0.732286334    
   1.43750000      0.875000000      0.552206874       7.33990921E-03  0.552255690    
   1.43750000      0.925000012      0.348912269       4.89921216E-03  0.348946661    
   1.43750000      0.975000024      0.123381048       1.68933906E-03  0.123392612    
   1.43750000       1.00000000       0.00000000       0.00000000       0.00000000    
   1.56250000       0.00000000       0.00000000       0.00000000       0.00000000    
   1.56250000       2.50000004E-02  0.121647492      -2.02550506E-03  0.121664353    
   1.56250000       7.50000030E-02  0.344025910      -5.58708142E-03  0.344071269    
   1.56250000      0.125000000      0.544440508      -8.05262383E-03  0.544500053    
   1.56250000      0.175000012      0.721868753      -9.37627070E-03  0.721929669    
   1.56250000      0.224999994      0.875470102      -9.70132370E-03  0.875523865    
   1.56250000      0.275000006       1.00455630      -9.17390455E-03   1.00459814    
   1.56250000      0.324999988       1.10854805      -7.94428587E-03   1.10857642    
   1.56250000      0.375000000       1.18696547      -6.16685068E-03   1.18698144    
   1.56250000      0.425000012       1.23943222      -3.99792567E-03   1.23943865    
   1.56250000      0.475000024       1.26569200      -1.59396941E-03   1.26569295    
   1.56250000      0.524999976       1.26561475       8.88347102E-04   1.26561511    
   1.56250000      0.575000048       1.23920321       3.29239108E-03   1.23920763    
   1.56250000      0.625000000       1.18659818       5.46170678E-03   1.18661070    
   1.56250000      0.675000012       1.10806692       7.23948516E-03   1.10809064    
   1.56250000      0.725000024       1.00399470       8.46936367E-03   1.00403047    
   1.56250000      0.774999976      0.874871612       8.99725221E-03  0.874917865    
   1.56250000      0.825000048      0.721285939       8.67313519E-03  0.721338093    
   1.56250000      0.875000000      0.543935299       7.35234935E-03  0.543984950    
   1.56250000      0.925000012      0.343668342       4.90160380E-03  0.343703300    
   1.56250000      0.975000024      0.121514149       1.68909202E-03  0.121525884    
   1.56250000       1.00000000       0.00000000       0.00000000       0.00000000    
   1.68750000       0.00000000       0.00000000       0.00000000       0.00000000    
   1.68750000       2.50000004E-02  0.119776875      -2.02436047E-03  0.119793981    
   1.68750000       7.50000030E-02  0.338784575      -5.58359828E-03  0.338830590    
   1.68750000      0.125000000      0.536184311      -8.04788247E-03  0.536244690    
   1.68750000      0.175000012      0.710947037      -9.37281922E-03  0.711008847    
   1.68750000      0.224999994      0.862237215      -9.70151648E-03  0.862291813    
   1.68750000      0.275000006      0.989378572      -9.17831063E-03  0.989421129    
   1.68750000      0.324999988       1.09180379      -7.95161165E-03   1.09183276    
   1.68750000      0.375000000       1.16904187      -6.17413409E-03   1.16905820    
   1.68750000      0.425000012       1.22072113      -4.00132500E-03   1.22072768    
   1.68750000      0.475000024       1.24658692      -1.59068417E-03   1.24658787    
   1.68750000      0.524999976       1.24650967       8.99100385E-04   1.24651003    
   1.68750000      0.575000048       1.22049320       3.30913696E-03   1.22049773    
   1.68750000      0.625000000       1.16867614       5.48089761E-03   1.16868901    
   1.68750000      0.675000012       1.09132504       7.25711137E-03   1.09134912    
   1.68750000      0.725000024      0.988820314       8.48218612E-03  0.988856673    
   1.68750000      0.774999976      0.861643434       9.00357030E-03  0.861690462    
   1.68750000      0.825000048      0.710370064       8.67369957E-03  0.710422993    
   1.68750000      0.875000000      0.535685062       7.34967459E-03  0.535735488    
   1.68750000      0.925000012      0.338431716       4.89890110E-03  0.338467181    
   1.68750000      0.975000024      0.119645923       1.68814138E-03  0.119657829    
   1.68750000       1.00000000       0.00000000       0.00000000       0.00000000    
   1.81250000       0.00000000       0.00000000       0.00000000       0.00000000    
   1.81250000       2.50000004E-02  0.117902786      -2.02331995E-03  0.117920145    
   1.81250000       7.50000030E-02  0.333538353      -5.57990326E-03  0.333585024    
   1.81250000      0.125000000      0.527926683      -8.04114342E-03  0.527987957    
   1.81250000      0.175000012      0.700028658      -9.36375000E-03  0.700091302    
   1.81250000      0.224999994      0.849011838      -9.69135016E-03  0.849067152    
   1.81250000      0.275000006      0.974209368      -9.16847587E-03  0.974252462    
   1.81250000      0.324999988       1.07506633      -7.94304535E-03   1.07509565    
   1.81250000      0.375000000       1.15112019      -6.16704766E-03   1.15113664    
   1.81250000      0.425000012       1.20200706      -3.99559271E-03   1.20201373    
   1.81250000      0.475000024       1.22747600      -1.58601184E-03   1.22747695    
   1.81250000      0.524999976       1.22739983       9.02677071E-04   1.22740018    
   1.81250000      0.575000048       1.20178175       3.31128016E-03   1.20178628    
   1.81250000      0.625000000       1.15075934       5.48116025E-03   1.15077233    
   1.81250000      0.675000012       1.07459402       7.25466199E-03   1.07461846    
   1.81250000      0.725000024      0.973659396       8.47692136E-03  0.973696291    
   1.81250000      0.774999976      0.848427355       8.99660960E-03  0.848475039    