 TITLE= "TESTPLOT" 
 VARIABLES="x","y","fx","fy","magf" 
 ZONE T="1", I=          81 , J=          21
   0.00000000       0.00000000       1.00000000       0.00000000       1.00000000    
   0.00000000       2.50000004E-02   1.00000000       0.00000000       1.00000000    
   0.00000000       7.50000030E-02   1.00000000       0.00000000       1.00000000    
   0.00000000      0.125000000       1.00000000       0.00000000       1.00000000    
   0.00000000      0.175000012       1.00000000       0.00000000       1.00000000    
   0.00000000      0.224999994       1.00000000       0.00000000       1.00000000    
   0.00000000      0.275000006       1.00000000       0.00000000       1.00000000    
   0.00000000      0.324999988       1.00000000       0.00000000       1.00000000    
   0.00000000      0.375000000       1.00000000       0.00000000       1.00000000    
   0.00000000      0.425000012       1.00000000       0.00000000       1.00000000    
   0.00000000      0.475000024       1.00000000       0.00000000       1.00000000    
   0.00000000      0.524999976       1.00000000       0.00000000       1.00000000    
   0.00000000      0.575000048       1.00000000       0.00000000       1.00000000    
   0.00000000      0.625000000       1.00000000       0.00000000       1.00000000    
   0.00000000      0.675000012       1.00000000       0.00000000       1.00000000    
   0.00000000      0.725000024       1.00000000       0.00000000       1.00000000    
   0.00000000      0.774999976       1.00000000       0.00000000       1.00000000    
   0.00000000      0.825000048       1.00000000       0.00000000       1.00000000    
   0.00000000      0.875000000       1.00000000       0.00000000       1.00000000    
   0.00000000      0.925000012       1.00000000       0.00000000       1.00000000    
   0.00000000      0.975000024       1.00000000       0.00000000       1.00000000    
   0.00000000       1.00000000       1.00000000       0.00000000       1.00000000    
   6.25000000E-02   0.00000000      0.500000000       0.00000000      0.500000000    
   6.25000000E-02   2.50000004E-02  0.716381252      0.111083433      0.724942505    
   6.25000000E-02   7.50000030E-02  0.919971526      0.251635969      0.953765333    
   6.25000000E-02  0.125000000       1.01073003      0.274274886       1.04728305    
   6.25000000E-02  0.175000012       1.04560137      0.246668071       1.07430315    
   6.25000000E-02  0.224999994       1.05378938      0.201840341       1.07294536    
   6.25000000E-02  0.275000006       1.05049384      0.155056641       1.06187570    
   6.25000000E-02  0.324999988       1.04348898      0.112393484       1.04952443    
   6.25000000E-02  0.375000000       1.03656065       7.53039792E-02   1.03929234    
   6.25000000E-02  0.425000012       1.03141344       4.30448428E-02   1.03231132    
   6.25000000E-02  0.475000024       1.02873158       1.39170345E-02   1.02882576    
   6.25000000E-02  0.524999976       1.02873814      -1.41406860E-02   1.02883530    
   6.25000000E-02  0.575000048       1.03143167      -4.32786234E-02   1.03233922    
   6.25000000E-02  0.625000000       1.03659129      -7.55577385E-02   1.03934133    
   6.25000000E-02  0.675000012       1.04353440     -0.112677485       1.04960001    
   6.25000000E-02  0.725000024       1.05055642     -0.155382991       1.06198525    
   6.25000000E-02  0.774999976       1.05386806     -0.202221572       1.07309437    
   6.25000000E-02  0.825000048       1.04569530     -0.247115508       1.07449746    
   6.25000000E-02  0.875000000       1.01083279     -0.274795979       1.04751885    
   6.25000000E-02  0.925000012      0.920069933     -0.252220750      0.954014719    
   6.25000000E-02  0.975000024      0.716450453     -0.111388750      0.725057721    
   6.25000000E-02   1.00000000      0.500000000       0.00000000      0.500000000    
  0.187500000       0.00000000       0.00000000       0.00000000       0.00000000    
  0.187500000       2.50000004E-02  0.338618428       3.52729894E-02  0.340450615    
  0.187500000       7.50000030E-02  0.729763806      0.112049386      0.738315821    
  0.187500000      0.125000000      0.947875977      0.180421412      0.964894176    
  0.187500000      0.175000012       1.06122041      0.216719538       1.08312333    
  0.187500000      0.224999994       1.11299598      0.221419275       1.13480687    
  0.187500000      0.275000006       1.13064098      0.202265859       1.14859068    
  0.187500000      0.324999988       1.13128388      0.167557657       1.14362526    
  0.187500000      0.375000000       1.12529588      0.123841345       1.13208985    
  0.187500000      0.425000012       1.11869168       7.55019262E-02   1.12123668    
  0.187500000      0.475000024       1.11470151       2.51370929E-02   1.11498487    
  0.187500000      0.524999976       1.11472058      -2.57795155E-02   1.11501861    
  0.187500000      0.575000048       1.11874604      -7.61536807E-02   1.12133503    
  0.187500000      0.625000000       1.12538540     -0.124511376       1.13225234    
  0.187500000      0.675000012       1.13140798     -0.168251872       1.14384997    
  0.187500000      0.725000024       1.13079810     -0.202985108       1.14887214    
  0.187500000      0.774999976       1.11317849     -0.222159624       1.13513052    
  0.187500000      0.825000048       1.06141877     -0.217471540       1.08346832    
  0.187500000      0.875000000      0.948073030     -0.181169659      0.965227902    
  0.187500000      0.925000012      0.729935110     -0.112767123      0.738594413    
  0.187500000      0.975000024      0.338728040      -3.56198326E-02  0.340595752    
  0.187500000       1.00000000       0.00000000       0.00000000       0.00000000    
  0.312500000       0.00000000       0.00000000       0.00000000       0.00000000    
  0.312500000       2.50000004E-02  0.212848842       1.02653969E-02  0.213096246    
  0.312500000       7.50000030E-02  0.558434784       4.24222499E-02  0.560043812    
  0.312500000      0.125000000      0.813184857       8.61912519E-02  0.817739904    
  0.312500000      0.175000012      0.987252831      0.123099163      0.994897783    
  0.312500000      0.224999994       1.09791458      0.143766195       1.10728729    
  0.312500000      0.275000006       1.16287327      0.145809025       1.17197883    
  0.312500000      0.324999988       1.19742370      0.130919665       1.20455945    
  0.312500000      0.375000000       1.21352911      0.102638721       1.21786189    
  0.312500000      0.425000012       1.21976078       6.50098473E-02   1.22149193    
  0.312500000      0.475000024       1.22157049       2.19523218E-02   1.22176778    
  0.312500000      0.524999976       1.22159481      -2.28756405E-02   1.22180903    
  0.312500000      0.575000048       1.21982992      -6.59319311E-02   1.22161043    
  0.312500000      0.625000000       1.21363926     -0.103556737       1.21804941    
  0.312500000      0.675000012       1.19756722     -0.131829470       1.20480132    
  0.312500000      0.725000024       1.16303706     -0.146703124       1.17225289    
  0.312500000      0.774999976       1.09808517     -0.144633919       1.10756934    
  0.312500000      0.825000048      0.987413287     -0.123929627      0.995160043    
  0.312500000      0.875000000      0.813319802      -8.69754404E-02  0.817957103    
  0.312500000      0.925000012      0.558532298      -4.31479141E-02  0.560196459    
  0.312500000      0.975000024      0.212903500      -1.06114261E-02  0.213167787    
  0.312500000       1.00000000       0.00000000       0.00000000       0.00000000    
  0.437500000       0.00000000       0.00000000       0.00000000       0.00000000    
  0.437500000       2.50000004E-02  0.168331817       2.77223322E-03  0.168354645    
  0.437500000       7.50000030E-02  0.466685116       1.52162164E-02  0.466933101    
  0.437500000      0.125000000      0.715137839       3.70993540E-02  0.716099560    
  0.437500000      0.175000012      0.910244942       5.99562861E-02  0.912217438    
  0.437500000      0.224999994       1.05521178       7.69206285E-02   1.05801165    
  0.437500000      0.275000006       1.15724277       8.39609876E-02   1.16028464    
  0.437500000      0.324999988       1.22512114       7.97753781E-02   1.22771573    
  0.437500000      0.375000000       1.26742673       6.51707873E-02   1.26910114    
  0.437500000      0.425000012       1.29135299       4.23560999E-02   1.29204738    
  0.437500000      0.475000024       1.30200791       1.43539552E-02   1.30208707    
  0.437500000      0.524999976       1.30202532      -1.54129965E-02   1.30211651    
  0.437500000      0.575000048       1.29140019      -4.34044525E-02   1.29212940    
  0.437500000      0.625000000       1.26749611      -6.61978424E-02   1.26922357    
  0.437500000      0.675000012       1.22520256      -8.07700008E-02   1.22786200    
  0.437500000      0.725000024       1.15732229      -8.49125162E-02   1.16043317    
  0.437500000      0.774999976       1.05527818      -7.78201073E-02   1.05814362    
  0.437500000      0.825000048      0.910286546      -6.07977174E-02  0.912314594    
  0.437500000      0.875000000      0.715153813      -3.78817767E-02  0.716156423    
  0.437500000      0.925000012      0.466685444      -1.59362182E-02  0.466957450    
  0.437500000      0.975000024      0.168339819      -3.11549357E-03  0.168368652    
  0.437500000       1.00000000       0.00000000       0.00000000       0.00000000    
  0.562500000       0.00000000       0.00000000       0.00000000       0.00000000    
  0.562500000       2.50000004E-02  0.149403423       3.08481685E-05  0.149403423    
  0.562500000       7.50000030E-02  0.420387626       3.77283106E-03  0.420404553    
  0.562500000      0.125000000      0.657206178       1.33156311E-02  0.657341063    
  0.562500000      0.175000012      0.855935454       2.50987187E-02  0.856303334    
  0.562500000      0.224999994       1.01577568       3.53802294E-02   1.01639175    
  0.562500000      0.275000006       1.13874269       4.12644632E-02   1.13949013    
  0.562500000      0.324999988       1.22877455       4.11402881E-02   1.22946310    
  0.562500000      0.375000000       1.29064012       3.47505435E-02   1.29110789    
  0.562500000      0.425000012       1.32889938       2.30141021E-02   1.32909870    
  0.562500000      0.475000024       1.34707880       7.72175472E-03   1.34710097    
  0.562500000      0.524999976       1.34708071      -8.80915578E-03   1.34710956    
  0.562500000      0.575000048       1.32889998      -2.40870975E-02   1.32911825    
  0.562500000      0.625000000       1.29063106      -3.57950702E-02   1.29112732    
  0.562500000      0.675000012       1.22874880      -4.21431251E-02   1.22947133    
  0.562500000      0.725000024       1.13869333      -4.22153324E-02   1.13947558    
  0.562500000      0.774999976       1.01570010      -3.62725630E-02   1.01634765    
  0.562500000      0.825000048      0.855834901      -2.59307548E-02  0.856227636    
  0.562500000      0.875000000      0.657094955      -1.40899196E-02  0.657245994    
  0.562500000      0.925000012      0.420294940      -4.48818691E-03  0.420318902    
  0.562500000      0.975000024      0.149371535      -3.73008399E-04  0.149371997    
  0.562500000       1.00000000       0.00000000       0.00000000       0.00000000    
  0.687500000       0.00000000       0.00000000       0.00000000       0.00000000    
  0.687500000       2.50000004E-02  0.140229613      -1.12931721E-03  0.140234157    
  0.687500000       7.50000030E-02  0.396090925      -1.38695340E-03  0.396093369    
  0.687500000      0.125000000      0.623926640       1.83551223E-03  0.623929322    
  0.687500000      0.175000012      0.821011305       7.07827229E-03  0.821041822    
  0.687500000      0.224999994      0.985916853       1.24587715E-02  0.985995591    
  0.687500000      0.275000006       1.11870837       1.62824839E-02   1.11882687    
  0.687500000      0.324999988       1.22074962       1.73814520E-02   1.22087336    
  0.687500000      0.375000000       1.29422021       1.53007042E-02   1.29431069    
  0.687500000      0.425000012       1.34150004       1.03174979E-02   1.34153974    
  0.687500000      0.475000024       1.36457396       3.32488609E-03   1.36457801    
  0.687500000      0.524999976       1.36455691      -4.37928503E-03   1.36456394    
  0.687500000      0.575000048       1.34144497      -1.13571808E-02   1.34149301    
  0.687500000      0.625000000       1.29412282      -1.63118728E-02   1.29422557    
  0.687500000      0.675000012       1.22060823      -1.83520801E-02   1.22074616    
  0.687500000      0.725000024       1.11852479      -1.72036793E-02   1.11865711    
  0.687500000      0.774999976      0.985698700      -1.33257378E-02  0.985788763    
  0.687500000      0.825000048      0.820774198      -7.89041910E-03  0.820812166    
  0.687500000      0.875000000      0.623699725      -2.59647146E-03  0.623705089    
  0.687500000      0.925000012      0.395917654       6.78398879E-04  0.395918220    
  0.687500000      0.975000024      0.140164614       7.89135171E-04  0.140166834    
  0.687500000       1.00000000       0.00000000       0.00000000       0.00000000    
  0.812500000       0.00000000       0.00000000       0.00000000       0.00000000    
  0.812500000       2.50000004E-02  0.135245651      -1.64524070E-03  0.135255650    
  0.812500000       7.50000030E-02  0.382250160      -3.76136927E-03  0.382268667    
  0.812500000      0.125000000      0.603768229      -3.64896306E-03  0.603779256    
  0.812500000      0.175000012      0.797984838      -1.87329843E-03  0.797987044    
  0.812500000      0.224999994      0.963612378       6.27303845E-04  0.963612616    
  0.812500000      0.275000006       1.10008979       2.92338198E-03   1.10009372    
  0.812500000      0.324999988       1.20759273       4.28581238E-03   1.20760036    
  0.812500000      0.375000000       1.28686333       4.32349555E-03   1.28687060    
  0.812500000      0.425000012       1.33890557       3.03926598E-03   1.33890903    
  0.812500000      0.475000024       1.36463737       7.96815031E-04   1.36463761    
  0.812500000      0.524999976       1.36460161      -1.78980199E-03   1.36460280    
  0.812500000      0.575000048       1.33879793      -4.01892699E-03   1.33880389    
  0.812500000      0.625000000       1.28668463      -5.27810259E-03   1.28669548    
  0.812500000      0.675000012       1.20734751      -5.20603918E-03   1.20735872    
  0.812500000      0.725000024       1.09978747      -3.80273233E-03   1.09979403    
  0.812500000      0.774999976      0.963271379      -1.46209693E-03  0.963272512    
  0.812500000      0.825000048      0.797632158       1.08304957E-03  0.797632933    
  0.812500000      0.875000000      0.603445172       2.90073827E-03  0.603452146    
  0.812500000      0.925000012      0.382011414       3.05833225E-03  0.382023662    
  0.812500000      0.975000024      0.135156378       1.30622310E-03  0.135162681    
  0.812500000       1.00000000       0.00000000       0.00000000       0.00000000    
  0.937500000       0.00000000       0.00000000       0.00000000       0.00000000    
  0.937500000       2.50000004E-02  0.132121265      -1.87394919E-03  0.132134557    
  0.937500000       7.50000030E-02  0.373316765      -4.83913068E-03  0.373348147    
  0.937500000      0.125000000      0.590163946      -6.20117504E-03  0.590196490    
  0.937500000      0.175000012      0.781377316      -6.14793412E-03  0.781401515    
  0.937500000      0.224999994      0.945886314      -5.16700745E-03  0.945900440    
  0.937500000      0.275000006       1.08296490      -3.77236982E-03   1.08297145    
  0.937500000      0.324999988       1.19228458      -2.41015176E-03   1.19228709    
  0.937500000      0.375000000       1.27387345      -1.37720106E-03   1.27387416    
  0.937500000      0.425000012       1.32798314      -7.76583678E-04   1.32798338    
  0.937500000      0.475000024       1.35491300      -5.23624942E-04   1.35491312    
  0.937500000      0.524999976       1.35486209      -3.99616285E-04   1.35486209    
  0.937500000      0.575000048       1.32783270      -1.36761460E-04   1.32783270    
  0.937500000      0.625000000       1.27362847       4.83207958E-04   1.27362859    
  0.937500000      0.675000012       1.19195485       1.54306204E-03   1.19195580    
  0.937500000      0.725000024       1.08256674       2.93718278E-03   1.08257067    
  0.937500000      0.774999976      0.945448160       4.36566770E-03  0.945458233    
  0.937500000      0.825000048      0.780935287       5.38055692E-03  0.780953825    
  0.937500000      0.875000000      0.589767098       5.46550378E-03  0.589792430    
  0.937500000      0.925000012      0.373027980       4.13987227E-03  0.373050958    
  0.937500000      0.975000024      0.132012546       1.53512519E-03  0.132021472    
  0.937500000       1.00000000       0.00000000       0.00000000       0.00000000    
   1.06250000       0.00000000       0.00000000       0.00000000       0.00000000    
   1.06250000       2.50000004E-02  0.129804417      -1.96830137E-03  0.129819334    
   1.06250000       7.50000030E-02  0.366620332      -5.30276354E-03  0.366658688    
   1.06250000      0.125000000      0.579679728      -7.33361440E-03  0.579726100    
   1.06250000      0.175000012      0.767981291      -8.09064880E-03  0.768023908    
   1.06250000      0.224999994      0.930612087      -7.85552152E-03  0.930645227    
   1.06250000      0.275000006       1.06682861      -6.93595689E-03   1.06685114    
   1.06250000      0.324999988       1.17610621      -5.62151195E-03   1.17611969    
   1.06250000      0.375000000       1.25814557      -4.14116401E-03   1.25815237    
   1.06250000      0.425000012       1.31282544      -2.63641495E-03   1.31282806    
   1.06250000      0.475000024       1.34012651      -1.15988369E-03   1.34012699    
   1.06250000      0.524999976       1.34006524       3.01097782E-04   1.34006524    
   1.06250000      0.575000048       1.31264222       1.78445189E-03   1.31264341    
   1.06250000      0.625000000       1.25784993       3.30365449E-03   1.25785434    
   1.06250000      0.675000012       1.17571259       4.80402168E-03   1.17572248    
   1.06250000      0.725000024       1.06635988       6.14136271E-03   1.06637752    
   1.06250000      0.774999976      0.930102706       7.08536711E-03  0.930129647    
   1.06250000      0.825000048      0.767474174       7.34489411E-03  0.767509341    
   1.06250000      0.875000000      0.579230607       6.61108084E-03  0.579268336    
   1.06250000      0.925000012      0.366296947       4.61067911E-03  0.366325974    
   1.06250000      0.975000024      0.129682273       1.63182011E-03  0.129692540    
   1.06250000       1.00000000       0.00000000       0.00000000       0.00000000    
   1.18750000       0.00000000       0.00000000       0.00000000       0.00000000    
   1.18750000       2.50000004E-02  0.127818972      -2.00609420E-03  0.127834707    
   1.18750000       7.50000030E-02  0.360895395      -5.49187977E-03  0.360937178    
   1.18750000      0.125000000      0.570604682      -7.80626805E-03  0.570658088    
   1.18750000      0.175000012      0.756094575      -8.92058201E-03  0.756147206    
   1.18750000      0.224999994      0.916549206      -9.02780518E-03  0.916593671    
   1.18750000      0.275000006       1.05124569      -8.33913963E-03   1.05127871    
   1.18750000      0.324999988       1.15959394      -7.06467964E-03   1.15961552    
   1.18750000      0.375000000       1.24115789      -5.39402198E-03   1.24116957    
   1.18750000      0.425000012       1.29564726      -3.48110218E-03   1.29565203    
   1.18750000      0.475000024       1.32289386      -1.44110329E-03   1.32289457    
   1.18750000      0.524999976       1.32282543       6.38763187E-04   1.32282555    
   1.18750000      0.575000048       1.29544139       2.68314150E-03   1.29544413    
   1.18750000      0.625000000       1.24082613       4.60548652E-03   1.24083471    
   1.18750000      0.675000012       1.15915585       6.28909655E-03   1.15917289    
   1.18750000      0.725000024       1.05072892       7.57869659E-03   1.05075622    
   1.18750000      0.774999976      0.915991843       8.28346424E-03  0.916029274    
   1.18750000      0.825000048      0.755544782       8.19233805E-03  0.755589187    
   1.18750000      0.875000000      0.570122123       7.09377648E-03  0.570166290    
   1.18750000      0.925000012      0.360550255       4.80350805E-03  0.360582262    
   1.18750000      0.975000024      0.127689436       1.67009234E-03  0.127700359    
   1.18750000       1.00000000       0.00000000       0.00000000       0.00000000    
   1.31250000       0.00000000       0.00000000       0.00000000       0.00000000    
   1.31250000       2.50000004E-02  0.125957727      -2.01818859E-03  0.125973895    
   1.31250000       7.50000030E-02  0.355561435      -5.55903558E-03  0.355604887    
   1.31250000      0.125000000      0.562124729      -7.98426941E-03  0.562181413    
   1.31250000      0.175000012      0.744871676      -9.24429111E-03  0.744929075    
   1.31250000      0.224999994      0.903043389      -9.49691888E-03  0.903093338    
   1.31250000      0.275000006       1.03594184      -8.91138334E-03   1.03598022    
   1.31250000      0.324999988       1.14296460      -7.66094867E-03   1.14299023    
   1.31250000      0.375000000       1.22362542      -5.91512537E-03   1.22363973    
   1.31250000      0.425000012       1.27756631      -3.83098889E-03   1.27757204    
   1.31250000      0.475000024       1.30455589      -1.55096047E-03   1.30455685    
   1.31250000      0.524999976       1.30448294       7.93459243E-04   1.30448318    
   1.31250000      0.575000048       1.27734733       3.07580363E-03   1.27735102    
   1.31250000      0.625000000       1.22327161       5.16547309E-03   1.22328258    
   1.31250000      0.675000012       1.14249909       6.91865757E-03   1.14252007    
   1.31250000      0.725000024       1.03539574       8.17743130E-03   1.03542805    
   1.31250000      0.774999976      0.902457237       8.77262466E-03  0.902499855    
   1.31250000      0.825000048      0.744297087       8.52949359E-03  0.744345963    
   1.31250000      0.875000000      0.561623335       7.27913901E-03  0.561670542    
   1.31250000      0.925000012      0.355204582       4.87395935E-03  0.355238020    
   1.31250000      0.975000024      0.125824079       1.68307230E-03  0.125835344    
   1.31250000       1.00000000       0.00000000       0.00000000       0.00000000    
   1.43750000       0.00000000       0.00000000       0.00000000       0.00000000    
   1.43750000       2.50000004E-02  0.124133721      -2.02114950E-03  0.124150172    
   1.43750000       7.50000030E-02  0.350366414      -5.57765458E-03  0.350410819    
   1.43750000      0.125000000      0.553872943      -8.03891104E-03  0.553931296    
   1.43750000      0.175000012      0.733916402      -9.35129076E-03  0.733975947    
   1.43750000      0.224999994      0.889773369      -9.65994038E-03  0.889825821    
   1.43750000      0.275000006       1.02076745      -9.11733508E-03   1.02080810    
   1.43750000      0.324999988       1.12630105      -7.88060203E-03   1.12632859    
   1.43750000      0.375000000       1.20587611      -6.10948354E-03   1.20589161    
   1.43750000      0.425000012       1.25911272      -3.96081619E-03   1.25911891    
   1.43750000      0.475000024       1.28575599      -1.58705527E-03   1.28575695    
   1.43750000      0.524999976       1.28568006       8.61538108E-04   1.28568029    
   1.43750000      0.575000048       1.25888634       3.23658017E-03   1.25889051    
   1.43750000      0.625000000       1.20551121       5.38821984E-03   1.20552325    
   1.43750000      0.675000012       1.12582171       7.16259005E-03   1.12584448    
   1.43750000      0.725000024       1.02020669       8.40274058E-03   1.02024126    
   1.43750000      0.774999976      0.889173627       8.94966908E-03  0.889218688    
   1.43750000      0.825000048      0.733330846       8.64571147E-03  0.733381808    
   1.43750000      0.875000000      0.553363860       7.33880186E-03  0.553412497    
   1.43750000      0.925000012      0.350005955       4.89434414E-03  0.350040168    
   1.43750000      0.975000024      0.123999976       1.68631389E-03  0.124011442    
   1.43750000       1.00000000       0.00000000       0.00000000       0.00000000    
   1.56250000       0.00000000       0.00000000       0.00000000       0.00000000    
   1.56250000       2.50000004E-02  0.122315355      -2.02058582E-03  0.122332044    
   1.56250000       7.50000030E-02  0.345209092      -5.57842571E-03  0.345254153    
   1.56250000      0.125000000      0.545694172      -8.04731064E-03  0.545753479    
   1.56250000      0.175000012      0.723056495      -9.37439874E-03  0.723117232    
   1.56250000      0.224999994      0.876594305      -9.70130973E-03  0.876648009    
   1.56250000      0.275000006       1.00564897      -9.17420071E-03   1.00569081    
   1.56250000      0.324999988       1.10963321      -7.94399343E-03   1.10966158    
   1.56250000      0.375000000       1.18805242      -6.16621785E-03   1.18806839    
   1.56250000      0.425000012       1.24052250      -3.99709865E-03   1.24052894    
   1.56250000      0.475000024       1.26678348      -1.59264507E-03   1.26678443    
   1.56250000      0.524999976       1.26670623       8.89989606E-04   1.26670659    
   1.56250000      0.575000048       1.24029326       3.29422439E-03   1.24029768    
   1.56250000      0.625000000       1.18768370       5.46412263E-03   1.18769622    
   1.56250000      0.675000012       1.10914969       7.24235270E-03   1.10917330    
   1.56250000      0.725000024       1.00508440       8.47240817E-03   1.00512016    
   1.56250000      0.774999976      0.875991940       9.00013931E-03  0.876038194    
   1.56250000      0.825000048      0.722469687       8.67465883E-03  0.722521782    
   1.56250000      0.875000000      0.545185447       7.35042989E-03  0.545234978    
   1.56250000      0.925000012      0.344849765       4.89592645E-03  0.344884515    
   1.56250000      0.975000024      0.122182056       1.68554904E-03  0.122193679    
   1.56250000       1.00000000       0.00000000       0.00000000       0.00000000    
   1.68750000       0.00000000       0.00000000       0.00000000       0.00000000    
   1.68750000       2.50000004E-02  0.120493680      -2.01911968E-03  0.120510593    
   1.68750000       7.50000030E-02  0.340054512      -5.57449926E-03  0.340100199    
   1.68750000      0.125000000      0.537530184      -8.04262795E-03  0.537590325    
   1.68750000      0.175000012      0.712221980      -9.37131792E-03  0.712283611    
   1.68750000      0.224999994      0.863443732      -9.70133021E-03  0.863498211    
   1.68750000      0.275000006      0.990551710      -9.17817652E-03  0.990594208    
   1.68750000      0.324999988       1.09296918      -7.95140397E-03   1.09299803    
   1.68750000      0.375000000       1.17020893      -6.17331732E-03   1.17022526    
   1.68750000      0.425000012       1.22189224      -3.99992801E-03   1.22189879    
   1.68750000      0.475000024       1.24775922      -1.58924796E-03   1.24776030    
   1.68750000      0.524999976       1.24768233       9.00633109E-04   1.24768269    
   1.68750000      0.575000048       1.22166371       3.31101660E-03   1.22166824    
   1.68750000      0.625000000       1.16984177       5.48317377E-03   1.16985464    
   1.68750000      0.675000012       1.09248757       7.25983409E-03   1.09251165    
   1.68750000      0.725000024      0.989990234       8.48532561E-03  0.990026593    
   1.68750000      0.774999976      0.862846017       9.00659338E-03  0.862893045    
   1.68750000      0.825000048      0.711640120       8.67531635E-03  0.711692989    
   1.68750000      0.875000000      0.537026405       7.34812208E-03  0.537076712    
   1.68750000      0.925000012      0.339698732       4.89406800E-03  0.339733988    
   1.68750000      0.975000024      0.120360933       1.68509816E-03  0.120372728    
   1.68750000       1.00000000       0.00000000       0.00000000       0.00000000    
   1.81250000       0.00000000       0.00000000       0.00000000       0.00000000    
   1.81250000       2.50000004E-02  0.118667230      -2.01810431E-03  0.118684389    
   1.81250000       7.50000030E-02  0.334892720      -5.57065476E-03  0.334939063    
   1.81250000      0.125000000      0.529361844      -8.03539809E-03  0.529422820    
   1.81250000      0.175000012      0.701387882      -9.36181284E-03  0.701450348    
   1.81250000      0.224999994      0.850297987      -9.69116949E-03  0.850353241    
   1.81250000      0.275000006      0.975460589      -9.16852616E-03  0.975503683    
   1.81250000      0.324999988       1.07630873      -7.94289354E-03   1.07633805    
   1.81250000      0.375000000       1.15236497      -6.16660062E-03   1.15238142    
   1.81250000      0.425000012       1.20325613      -3.99494637E-03   1.20326281    
   1.81250000      0.475000024       1.22872615      -1.58521789E-03   1.22872710    
   1.81250000      0.524999976       1.22865057       9.03895416E-04   1.22865093    
   1.81250000      0.575000048       1.20302999       3.31291393E-03   1.20303452    
   1.81250000      0.625000000       1.15200174       5.48312161E-03   1.15201473    
   1.81250000      0.675000012       1.07583284       7.25737307E-03   1.07585740    
   1.81250000      0.725000024      0.974906087       8.48032720E-03  0.974942982    
   1.81250000      0.774999976      0.849708200       9.00002010E-03  0.849755824    