 TITLE= "TESTPLOT" 
 VARIABLES="x","y","fx","fy","magf" 
 ZONE T="1", I=          81 , J=          21
   0.00000000       0.00000000       1.00000000       0.00000000       1.00000000    
   0.00000000       2.50000004E-02   1.00000000       0.00000000       1.00000000    
   0.00000000       7.50000030E-02   1.00000000       0.00000000       1.00000000    
   0.00000000      0.125000000       1.00000000       0.00000000       1.00000000    
   0.00000000      0.175000012       1.00000000       0.00000000       1.00000000    
   0.00000000      0.224999994       1.00000000       0.00000000       1.00000000    
   0.00000000      0.275000006       1.00000000       0.00000000       1.00000000    
   0.00000000      0.324999988       1.00000000       0.00000000       1.00000000    
   0.00000000      0.375000000       1.00000000       0.00000000       1.00000000    
   0.00000000      0.425000012       1.00000000       0.00000000       1.00000000    
   0.00000000      0.475000024       1.00000000       0.00000000       1.00000000    
   0.00000000      0.524999976       1.00000000       0.00000000       1.00000000    
   0.00000000      0.575000048       1.00000000       0.00000000       1.00000000    
   0.00000000      0.625000000       1.00000000       0.00000000       1.00000000    
   0.00000000      0.675000012       1.00000000       0.00000000       1.00000000    
   0.00000000      0.725000024       1.00000000       0.00000000       1.00000000    
   0.00000000      0.774999976       1.00000000       0.00000000       1.00000000    
   0.00000000      0.825000048       1.00000000       0.00000000       1.00000000    
   0.00000000      0.875000000       1.00000000       0.00000000       1.00000000    
   0.00000000      0.925000012       1.00000000       0.00000000       1.00000000    
   0.00000000      0.975000024       1.00000000       0.00000000       1.00000000    
   0.00000000       1.00000000       1.00000000       0.00000000       1.00000000    
   6.25000000E-02   0.00000000      0.500000000       0.00000000      0.500000000    
   6.25000000E-02   2.50000004E-02  0.716384709      0.111061916      0.724942625    
   6.25000000E-02   7.50000030E-02  0.919940114      0.251583874      0.953721285    
   6.25000000E-02  0.125000000       1.01067245      0.274215043       1.04721189    
   6.25000000E-02  0.175000012       1.04553270      0.246615082       1.07422423    
   6.25000000E-02  0.224999994       1.05371928      0.201799035       1.07286870    
   6.25000000E-02  0.275000006       1.05042660      0.155026317       1.06180477    
   6.25000000E-02  0.324999988       1.04342341      0.112371996       1.04945695    
   6.25000000E-02  0.375000000       1.03649592       7.52898157E-02   1.03922677    
   6.25000000E-02  0.425000012       1.03134990       4.30370197E-02   1.03224742    
   6.25000000E-02  0.475000024       1.02866864       1.39150992E-02   1.02876282    
   6.25000000E-02  0.524999976       1.02867460      -1.41365239E-02   1.02877164    
   6.25000000E-02  0.575000048       1.03136826      -4.32677940E-02   1.03227544    
   6.25000000E-02  0.625000000       1.03652763      -7.55402818E-02   1.03927660    
   6.25000000E-02  0.675000012       1.04346955     -0.112653166       1.04953301    
   6.25000000E-02  0.725000024       1.05048895     -0.155350477       1.06191373    
   6.25000000E-02  0.774999976       1.05379844     -0.202179283       1.07301807    
   6.25000000E-02  0.825000048       1.04562688     -0.247063309       1.07441890    
   6.25000000E-02  0.875000000       1.01077533     -0.274738491       1.04744828    
   6.25000000E-02  0.925000012      0.920039237     -0.252172232      0.953972220    
   6.25000000E-02  0.975000024      0.716455102     -0.111369282      0.725059330    
   6.25000000E-02   1.00000000      0.500000000       0.00000000      0.500000000    
  0.187500000       0.00000000       0.00000000       0.00000000       0.00000000    
  0.187500000       2.50000004E-02  0.338641971       3.52458544E-02  0.340471238    
  0.187500000       7.50000030E-02  0.729679465      0.111981660      0.738222182    
  0.187500000      0.125000000      0.947704732      0.180340543      0.964710832    
  0.187500000      0.175000012       1.06101108      0.216645658       1.08290339    
  0.187500000      0.224999994       1.11278105      0.221360028       1.13458443    
  0.187500000      0.275000006       1.13043320      0.202221632       1.14837837    
  0.187500000      0.324999988       1.13108325      0.167526126       1.14342213    
  0.187500000      0.375000000       1.12509966      0.123819917       1.13189244    
  0.187500000      0.425000012       1.11849809       7.54889846E-02   1.12104261    
  0.187500000      0.475000024       1.11450982       2.51321159E-02   1.11479318    
  0.187500000      0.524999976       1.11452746      -2.57768426E-02   1.11482549    
  0.187500000      0.575000048       1.11855292      -7.61435032E-02   1.12114155    
  0.187500000      0.625000000       1.12519002     -0.124492735       1.13205612    
  0.187500000      0.675000012       1.13120794     -0.168222845       1.14364779    
  0.187500000      0.725000024       1.13059020     -0.202943876       1.14866030    
  0.187500000      0.774999976       1.11296439     -0.222104341       1.13490975    
  0.187500000      0.825000048       1.06121039     -0.217402413       1.08325040    
  0.187500000      0.875000000      0.947903156     -0.181094229      0.965046883    
  0.187500000      0.925000012      0.729852200     -0.112705432      0.738503039    
  0.187500000      0.975000024      0.338752717      -3.55958194E-02  0.340617776    
  0.187500000       1.00000000       0.00000000       0.00000000       0.00000000    
  0.312500000       0.00000000       0.00000000       0.00000000       0.00000000    
  0.312500000       2.50000004E-02  0.212906614       1.02382330E-02  0.213152647    
  0.312500000       7.50000030E-02  0.558310926       4.23535183E-02  0.559915125    
  0.312500000      0.125000000      0.812904894       8.61076713E-02  0.817452669    
  0.312500000      0.175000012      0.986901999      0.123021446      0.994539976    
  0.312500000      0.224999994       1.09755063      0.143702537       1.10691810    
  0.312500000      0.275000006       1.16251874      0.145760179       1.17162108    
  0.312500000      0.324999988       1.19708276      0.130883604       1.20421660    
  0.312500000      0.375000000       1.21319652      0.102613822       1.21752834    
  0.312500000      0.425000012       1.21943307       6.49948865E-02   1.22116387    
  0.312500000      0.475000024       1.22124577       2.19461676E-02   1.22144294    
  0.312500000      0.524999976       1.22126925      -2.28731763E-02   1.22148347    
  0.312500000      0.575000048       1.21950328      -6.59204349E-02   1.22128367    
  0.312500000      0.625000000       1.21330786     -0.103535302       1.21771729    
  0.312500000      0.675000012       1.19722652     -0.131796271       1.20445907    
  0.312500000      0.725000024       1.16268373     -0.146656469       1.17189658    
  0.312500000      0.774999976       1.09772158     -0.144572899       1.10720098    
  0.312500000      0.825000048      0.987062871     -0.123855434      0.994803131    
  0.312500000      0.875000000      0.813040257      -8.68961215E-02  0.817670703    
  0.312500000      0.925000012      0.558408201      -4.30837981E-02  0.560067773    
  0.312500000      0.975000024      0.212960571      -1.05866482E-02  0.213223547    
  0.312500000       1.00000000       0.00000000       0.00000000       0.00000000    
  0.437500000       0.00000000       0.00000000       0.00000000       0.00000000    
  0.437500000       2.50000004E-02  0.168424442       2.74462020E-03  0.168446809    
  0.437500000       7.50000030E-02  0.466524601       1.51464064E-02  0.466770411    
  0.437500000      0.125000000      0.714752913       3.70136760E-02  0.715710640    
  0.437500000      0.175000012      0.909756184       5.98748177E-02  0.911724389    
  0.437500000      0.224999994       1.05470085       7.68521279E-02   1.05749702    
  0.437500000      0.275000006       1.15674269       8.39068592E-02   1.15978193    
  0.437500000      0.324999988       1.22463822       7.97345489E-02   1.22723114    
  0.437500000      0.375000000       1.26695585       6.51419535E-02   1.26862943    
  0.437500000      0.425000012       1.29089010       4.23381180E-02   1.29158425    
  0.437500000      0.475000024       1.30154848       1.43466499E-02   1.30162764    
  0.437500000      0.524999976       1.30156517      -1.54095981E-02   1.30165637    
  0.437500000      0.575000048       1.29093802      -4.33903858E-02   1.29166698    
  0.437500000      0.625000000       1.26702654      -6.61724582E-02   1.26875329    
  0.437500000      0.675000012       1.22472072      -8.07320848E-02   1.22737873    
  0.437500000      0.725000024       1.15682364      -8.48611668E-02   1.15993202    
  0.437500000      0.774999976       1.05476713      -7.77548775E-02   1.05762923    
  0.437500000      0.825000048      0.909797370      -6.07205369E-02  0.911821365    
  0.437500000      0.875000000      0.714768112      -3.78013179E-02  0.715767026    
  0.437500000      0.925000012      0.466523588      -1.58722978E-02  0.466793537    
  0.437500000      0.975000024      0.168430626      -3.09099234E-03  0.168458983    
  0.437500000       1.00000000       0.00000000       0.00000000       0.00000000    
  0.562500000       0.00000000       0.00000000       0.00000000       0.00000000    
  0.562500000       2.50000004E-02  0.149528980       3.71633132E-06  0.149528980    
  0.562500000       7.50000030E-02  0.420191497       3.70359956E-03  0.420207828    
  0.562500000      0.125000000      0.656720161       1.32295946E-02  0.656853378    
  0.562500000      0.175000012      0.855312228       2.50156708E-02  0.855677962    
  0.562500000      0.224999994       1.01512074       3.53089012E-02   1.01573467    
  0.562500000      0.275000006       1.13809931       4.12065536E-02   1.13884509    
  0.562500000      0.324999988       1.22814989       4.10953537E-02   1.22883725    
  0.562500000      0.375000000       1.29003000       3.47180143E-02   1.29049706    
  0.562500000      0.425000012       1.32829905       2.29933858E-02   1.32849801    
  0.562500000      0.475000024       1.34648132       7.71297514E-03   1.34650338    
  0.562500000      0.524999976       1.34648204      -8.80561303E-03   1.34651077    
  0.562500000      0.575000048       1.32829893      -2.40707658E-02   1.32851696    
  0.562500000      0.625000000       1.29002213      -3.57661210E-02   1.29051793    
  0.562500000      0.675000012       1.22812641      -4.21016812E-02   1.22884786    
  0.562500000      0.725000024       1.13805163      -4.21610177E-02   1.13883233    
  0.562500000      0.774999976       1.01504588      -3.62052359E-02   1.01569140    
  0.562500000      0.825000048      0.855211914      -2.58521326E-02  0.855602562    
  0.562500000      0.875000000      0.656609058      -1.40088461E-02  0.656758487    
  0.562500000      0.925000012      0.420098782      -4.42439178E-03  0.420122087    
  0.562500000      0.975000024      0.149496824      -3.48613627E-04  0.149497226    
  0.562500000       1.00000000       0.00000000       0.00000000       0.00000000    
  0.687500000       0.00000000       0.00000000       0.00000000       0.00000000    
  0.687500000       2.50000004E-02  0.140387505      -1.15643872E-03  0.140392274    
  0.687500000       7.50000030E-02  0.395861596      -1.45640876E-03  0.395864278    
  0.687500000      0.125000000      0.623343110       1.74845010E-03  0.623345554    
  0.687500000      0.175000012      0.820257306       6.99298410E-03  0.820287108    
  0.687500000      0.224999994      0.985121429       1.23835728E-02  0.985199273    
  0.687500000      0.275000006       1.11792421       1.62195805E-02   1.11804187    
  0.687500000      0.324999988       1.21998501       1.73314773E-02   1.22010815    
  0.687500000      0.375000000       1.29347014       1.52638694E-02   1.29356015    
  0.687500000      0.425000012       1.34075820       1.02941366E-02   1.34079778    
  0.687500000      0.475000024       1.36383355       3.31537519E-03   1.36383760    
  0.687500000      0.524999976       1.36381507      -4.37455811E-03   1.36382210    
  0.687500000      0.575000048       1.34070158      -1.13380868E-02   1.34074950    
  0.687500000      0.625000000       1.29337370      -1.62788164E-02   1.29347610    
  0.687500000      0.675000012       1.21984601      -1.83058809E-02   1.21998334    
  0.687500000      0.725000024       1.11774266      -1.71451643E-02   1.11787415    
  0.687500000      0.774999976      0.984905124      -1.32555589E-02  0.984994352    
  0.687500000      0.825000048      0.820021808      -7.81082083E-03  0.820059001    
  0.687500000      0.875000000      0.623117089      -2.51581147E-03  0.623122156    
  0.687500000      0.925000012      0.395689011       7.41150463E-04  0.395689696    
  0.687500000      0.975000024      0.140323669       8.12927086E-04  0.140326023    
  0.687500000       1.00000000       0.00000000       0.00000000       0.00000000    
  0.812500000       0.00000000       0.00000000       0.00000000       0.00000000    
  0.812500000       2.50000004E-02  0.135438070      -1.67238666E-03  0.135448396    
  0.812500000       7.50000030E-02  0.381990254      -3.83137492E-03  0.382009476    
  0.812500000      0.125000000      0.603090763      -3.73754604E-03  0.603102386    
  0.812500000      0.175000012      0.797104836      -1.96144823E-03  0.797107279    
  0.812500000      0.224999994      0.962680817       5.48309064E-04  0.962680995    
  0.812500000      0.275000006       1.09916759       2.85643525E-03   1.09917128    
  0.812500000      0.324999988       1.20668983       4.23143012E-03   1.20669723    
  0.812500000      0.375000000       1.28597307       4.28241212E-03   1.28598022    
  0.812500000      0.425000012       1.33801889       3.01314099E-03   1.33802223    
  0.812500000      0.475000024       1.36375129       7.87015888E-04   1.36375153    
  0.812500000      0.524999976       1.36371493      -1.78341952E-03   1.36371613    
  0.812500000      0.575000048       1.33791089      -3.99686024E-03   1.33791685    
  0.812500000      0.625000000       1.28579497      -5.24137868E-03   1.28580558    
  0.812500000      0.675000012       1.20644593      -5.15580876E-03   1.20645690    
  0.812500000      0.725000024       1.09886742      -3.73961474E-03   1.09887373    
  0.812500000      0.774999976      0.962342143      -1.38708588E-03  0.962343156    
  0.812500000      0.825000048      0.796754777       1.16692053E-03  0.796755672    
  0.812500000      0.875000000      0.602769732       2.98432214E-03  0.602777123    
  0.812500000      0.925000012      0.381752580       3.12257372E-03  0.381765336    
  0.812500000      0.975000024      0.135348946       1.33042131E-03  0.135355487    
  0.812500000       1.00000000       0.00000000       0.00000000       0.00000000    
  0.937500000       0.00000000       0.00000000       0.00000000       0.00000000    
  0.937500000       2.50000004E-02  0.132349312      -1.89991004E-03  0.132362947    
  0.937500000       7.50000030E-02  0.373030901      -4.90703853E-03  0.373063177    
  0.937500000      0.125000000      0.589398682      -6.28913986E-03  0.589432240    
  0.937500000      0.175000012      0.780377865      -6.23716693E-03  0.780402780    
  0.937500000      0.224999994      0.944823623      -5.24832308E-03  0.944838166    
  0.937500000      0.275000006       1.08190775      -3.84273753E-03   1.08191454    
  0.937500000      0.324999988       1.19124413      -2.46789888E-03   1.19124675    
  0.937500000      0.375000000       1.27284193      -1.42027275E-03   1.27284276    
  0.937500000      0.425000012       1.32695103      -8.03183124E-04   1.32695127    
  0.937500000      0.475000024       1.35387993      -5.32952603E-04   1.35388005    
  0.937500000      0.524999976       1.35382926      -3.91328707E-04   1.35382926    
  0.937500000      0.575000048       1.32680130      -1.11449444E-04   1.32680130    
  0.937500000      0.625000000       1.27259779       5.24319126E-04   1.27259791    
  0.937500000      0.675000012       1.19091594       1.59826176E-03   1.19091702    
  0.937500000      0.725000024       1.08151281       3.00448341E-03   1.08151698    
  0.937500000      0.774999976      0.944388509       4.44369763E-03  0.944398940    
  0.937500000      0.825000048      0.779939055       5.46587072E-03  0.779958189    
  0.937500000      0.875000000      0.589004755       5.54922689E-03  0.589030862    
  0.937500000      0.925000012      0.372743726       4.20374982E-03  0.372767448    
  0.937500000      0.975000024      0.132240951       1.55907078E-03  0.132250145    
  0.937500000       1.00000000       0.00000000       0.00000000       0.00000000    
   1.06250000       0.00000000       0.00000000       0.00000000       0.00000000    
   1.06250000       2.50000004E-02  0.130069733      -1.99539191E-03  0.130085036    
   1.06250000       7.50000030E-02  0.366312385      -5.37290238E-03  0.366351783    
   1.06250000      0.125000000      0.578831553      -7.42361695E-03  0.578879178    
   1.06250000      0.175000012      0.766867101      -8.18212982E-03  0.766910732    
   1.06250000      0.224999994      0.929422975      -7.93979224E-03  0.929456890    
   1.06250000      0.275000006       1.06564021      -7.00947177E-03   1.06566322    
   1.06250000      0.324999988       1.17493021      -5.68194874E-03   1.17494392    
   1.06250000      0.375000000       1.25697303      -4.18605749E-03   1.25698006    
   1.06250000      0.425000012       1.31164789      -2.66387756E-03   1.31165063    
   1.06250000      0.475000024       1.33894515      -1.16888469E-03   1.33894563    
   1.06250000      0.524999976       1.33888364       3.11489712E-04   1.33888376    
   1.06250000      0.575000048       1.31146634       1.81372534E-03   1.31146765    
   1.06250000      0.625000000       1.25667953       3.34924366E-03   1.25668395    
   1.06250000      0.675000012       1.17453957       4.86336742E-03   1.17454958    
   1.06250000      0.725000024       1.06517613       6.21270295E-03   1.06519425    
   1.06250000      0.774999976      0.928918242       7.16644526E-03  0.928945899    
   1.06250000      0.825000048      0.766364872       7.43212830E-03  0.766400933    
   1.06250000      0.875000000      0.578386426       6.69594202E-03  0.578425169    
   1.06250000      0.925000012      0.365990967       4.67490964E-03  0.366020828    
   1.06250000      0.975000024      0.129948169       1.65581307E-03  0.129958719    
   1.06250000       1.00000000       0.00000000       0.00000000       0.00000000    
   1.18750000       0.00000000       0.00000000       0.00000000       0.00000000    
   1.18750000       2.50000004E-02  0.128122479      -2.03201547E-03  0.128138587    
   1.18750000       7.50000030E-02  0.360567540      -5.56007959E-03  0.360610425    
   1.18750000      0.125000000      0.569677711      -7.89538771E-03  0.569732428    
   1.18750000      0.175000012      0.754869401      -9.01217200E-03  0.754923224    
   1.18750000      0.224999994      0.915236354      -9.11235996E-03  0.915281713    
   1.18750000      0.275000006       1.04992819      -8.41248035E-03   1.04996192    
   1.18750000      0.324999988       1.15828371      -7.12458557E-03   1.15830564    
   1.18750000      0.375000000       1.23984504      -5.43828029E-03   1.23985696    
   1.18750000      0.425000012       1.29432499      -3.50794778E-03   1.29432976    
   1.18750000      0.475000024       1.32156444      -1.44968124E-03   1.32156527    
   1.18750000      0.524999976       1.32149506       6.49290567E-04   1.32149529    
   1.18750000      0.575000048       1.29412127       2.71231425E-03   1.29412413    
   1.18750000      0.625000000       1.23951769       4.65143891E-03   1.23952639    
   1.18750000      0.675000012       1.15785122       6.34928700E-03   1.15786862    
   1.18750000      0.725000024       1.04941845       7.65068643E-03   1.04944634    
   1.18750000      0.774999976      0.914686203       8.36508535E-03  0.914724469    
   1.18750000      0.825000048      0.754326344       8.27963836E-03  0.754371762    
   1.18750000      0.875000000      0.569200456       7.17788655E-03  0.569245696    
   1.18750000      0.925000012      0.360225439       4.86671599E-03  0.360258311    
   1.18750000      0.975000024      0.127993599       1.69359567E-03  0.128004804    
   1.18750000       1.00000000       0.00000000       0.00000000       0.00000000    
   1.31250000       0.00000000       0.00000000       0.00000000       0.00000000    
   1.31250000       2.50000004E-02  0.126298517      -2.04377552E-03  0.126315057    
   1.31250000       7.50000030E-02  0.355214953      -5.62572759E-03  0.355259508    
   1.31250000      0.125000000      0.561121106      -8.07075296E-03  0.561179161    
   1.31250000      0.175000012      0.743537903      -9.33318865E-03  0.743596494    
   1.31250000      0.224999994      0.901609063      -9.57913883E-03  0.901659906    
   1.31250000      0.275000006       1.03449750      -8.98314547E-03   1.03453648    
   1.31250000      0.324999988       1.14152169      -7.72054959E-03   1.14154780    
   1.31250000      0.375000000       1.22217441      -5.96014131E-03   1.22218895    
   1.31250000      0.425000012       1.27610123      -3.85881844E-03   1.27610707    
   1.31250000      0.475000024       1.30308044      -1.55978440E-03   1.30308139    
   1.31250000      0.524999976       1.30300665       8.04492272E-04   1.30300689    
   1.31250000      0.575000048       1.27588415       3.10586835E-03   1.27588797    
   1.31250000      0.625000000       1.22182679       5.21195028E-03   1.22183788    
   1.31250000      0.675000012       1.14106476       6.97879773E-03   1.14108610    
   1.31250000      0.725000024       1.03396130       8.24877061E-03   1.03399420    
   1.31250000      0.774999976      0.901033401       8.85237940E-03  0.901076913    
   1.31250000      0.825000048      0.742973089       8.61436129E-03  0.743023038    
   1.31250000      0.875000000      0.560627460       7.36108609E-03  0.560675800    
   1.31250000      0.925000012      0.354862869       4.93563246E-03  0.354897201    
   1.31250000      0.975000024      0.126166388       1.70602626E-03  0.126177922    
   1.31250000       1.00000000       0.00000000       0.00000000       0.00000000    
   1.43750000       0.00000000       0.00000000       0.00000000       0.00000000    
   1.43750000       2.50000004E-02  0.124511473      -2.04588380E-03  0.124528281    
   1.43750000       7.50000030E-02  0.350001633      -5.64252073E-03  0.350047112    
   1.43750000      0.125000000      0.552793205      -8.12294520E-03  0.552852869    
   1.43750000      0.175000012      0.732475877      -9.43704601E-03  0.732536674    
   1.43750000      0.224999994      0.888220072      -9.73854959E-03  0.888273418    
   1.43750000      0.275000006       1.01919854      -9.18506179E-03   1.01923990    
   1.43750000      0.324999988       1.12472880      -7.93607812E-03   1.12475681    
   1.43750000      0.375000000       1.20429039      -6.15056325E-03   1.20430613    
   1.43750000      0.425000012       1.25750804      -3.98538774E-03   1.25751436    
   1.43750000      0.475000024       1.28413844      -1.59421691E-03   1.28413939    
   1.43750000      0.524999976       1.28406262       8.72112811E-04   1.28406286    
   1.43750000      0.575000048       1.25728512       3.26402858E-03   1.25728929    
   1.43750000      0.625000000       1.20393348       5.43094520E-03   1.20394576    
   1.43750000      0.675000012       1.12426078       7.21888244E-03   1.12428391    
   1.43750000      0.725000024       1.01865101       8.47045239E-03   1.01868618    
   1.43750000      0.774999976      0.887634337       9.02653858E-03  0.887680233    
   1.43750000      0.825000048      0.731903553       8.72820616E-03  0.731955588    
   1.43750000      0.875000000      0.552295029       7.41880853E-03  0.552344859    
   1.43750000      0.925000012      0.349647701       4.95469430E-03  0.349682808    
   1.43750000      0.975000024      0.124379352       1.70871627E-03  0.124391086    
   1.43750000       1.00000000       0.00000000       0.00000000       0.00000000    
   1.56250000       0.00000000       0.00000000       0.00000000       0.00000000    
   1.56250000       2.50000004E-02  0.122729585      -2.04468751E-03  0.122746617    
   1.56250000       7.50000030E-02  0.344826072      -5.64139010E-03  0.344872236    
   1.56250000      0.125000000      0.544539213      -8.12852755E-03  0.544599891    
   1.56250000      0.175000012      0.721510053      -9.45641287E-03  0.721572042    
   1.56250000      0.224999994      0.874923468      -9.77543369E-03  0.874978065    
   1.56250000      0.275000006       1.00395787      -9.23733786E-03   1.00400031    
   1.56250000      0.324999988       1.10793531      -7.99502246E-03   1.10796416    
   1.56250000      0.375000000       1.18633604      -6.20346423E-03   1.18635225    
   1.56250000      0.425000012       1.23878336      -4.01915191E-03   1.23878992    
   1.56250000      0.475000024       1.26502991      -1.59919879E-03   1.26503086    
   1.56250000      0.524999976       1.26495385       8.99364532E-04   1.26495421    
   1.56250000      0.575000048       1.23855948       3.31933447E-03   1.23856390    
   1.56250000      0.625000000       1.18597746       5.50325122E-03   1.18599021    
   1.56250000      0.675000012       1.10746527       7.29423948E-03   1.10748923    
   1.56250000      0.725000024       1.00340939       8.53582285E-03   1.00344574    
   1.56250000      0.774999976      0.874337912       9.07331146E-03  0.874384999    
   1.56250000      0.825000048      0.720939279       8.75439681E-03  0.720992446    
   1.56250000      0.875000000      0.544043601       7.42840860E-03  0.544094324    
   1.56250000      0.925000012      0.344475061       4.95543331E-03  0.344510704    
   1.56250000      0.975000024      0.122599334       1.70795631E-03  0.122611225    
   1.56250000       1.00000000       0.00000000       0.00000000       0.00000000    
   1.68750000       0.00000000       0.00000000       0.00000000       0.00000000    
   1.68750000       2.50000004E-02  0.120943256      -2.04284629E-03  0.120960511    
   1.68750000       7.50000030E-02  0.339652121      -5.63573278E-03  0.339698881    
   1.68750000      0.125000000      0.536299706      -8.12014565E-03  0.536361158    
   1.68750000      0.175000012      0.710570335      -9.44808312E-03  0.710633159    
   1.68750000      0.224999994      0.861657381      -9.76985693E-03  0.861712754    
   1.68750000      0.275000006      0.988741636      -9.23590735E-03  0.988784790    
   1.68750000      0.324999988       1.09115005      -7.99708068E-03   1.09117925    
   1.68750000      0.375000000       1.16836858      -6.20648591E-03   1.16838503    
   1.68750000      0.425000012       1.22002578      -4.02003806E-03   1.22003245    
   1.68750000      0.475000024       1.24587691      -1.59549457E-03   1.24587786    
   1.68750000      0.524999976       1.24580121       9.08674905E-04   1.24580157    
   1.68750000      0.575000048       1.21980309       3.33289150E-03   1.21980762    
   1.68750000      0.625000000       1.16801262       5.51777892E-03   1.16802561    
   1.68750000      0.675000012       1.09068370       7.30599184E-03   1.09070814    
   1.68750000      0.725000024      0.988198519       8.54202081E-03  0.988235414    
   1.68750000      0.774999976      0.861078620       9.07325000E-03  0.861126423    
   1.68750000      0.825000048      0.710006952       8.74955393E-03  0.710060835    
   1.68750000      0.875000000      0.535811305       7.42193870E-03  0.535862684    
   1.68750000      0.925000012      0.339306831       4.95056063E-03  0.339342952    
   1.68750000      0.975000024      0.120815121       1.70625257E-03  0.120827168    
   1.68750000       1.00000000       0.00000000       0.00000000       0.00000000    
   1.81250000       0.00000000       0.00000000       0.00000000       0.00000000    
   1.81250000       2.50000004E-02  0.119150832      -2.04106770E-03  0.119168311    
   1.81250000       7.50000030E-02  0.334470510      -5.62979700E-03  0.334517896    
   1.81250000      0.125000000      0.528056145      -8.10972042E-03  0.528118432    
   1.81250000      0.175000012      0.699632525      -9.43423901E-03  0.699696124    
   1.81250000      0.224999994      0.848398566      -9.75431874E-03  0.848454654    
   1.81250000      0.275000006      0.973535240      -9.22066998E-03  0.973578870    
   1.81250000      0.324999988       1.07437348      -7.98387360E-03   1.07440317    
   1.81250000      0.375000000       1.15040684      -6.19604811E-03   1.15042353    
   1.81250000      0.425000012       1.20126998      -4.01235977E-03   1.20127666    
   1.81250000      0.475000024       1.22672343      -1.59046205E-03   1.22672451    
   1.81250000      0.524999976       1.22664881       9.10553150E-04   1.22664917    
   1.81250000      0.575000048       1.20105064       3.33116343E-03   1.20105529    
   1.81250000      0.625000000       1.15005636       5.51248435E-03   1.15006959    
   1.81250000      0.675000012       1.07391524       7.29723182E-03   1.07394004    
   1.81250000      0.725000024      0.973001420       8.53056461E-03  0.973038793    
   1.81250000      0.774999976      0.847830355       9.06062126E-03  0.847878754    