 TITLE= "TESTPLOT" 
 VARIABLES="x","y","fx","fy","magf" 
 ZONE T="1", I=          81 , J=          21
   0.00000000       0.00000000       1.00000000       0.00000000       1.00000000    
   0.00000000       2.50000004E-02   1.00000000       0.00000000       1.00000000    
   0.00000000       7.50000030E-02   1.00000000       0.00000000       1.00000000    
   0.00000000      0.125000000       1.00000000       0.00000000       1.00000000    
   0.00000000      0.175000012       1.00000000       0.00000000       1.00000000    
   0.00000000      0.224999994       1.00000000       0.00000000       1.00000000    
   0.00000000      0.275000006       1.00000000       0.00000000       1.00000000    
   0.00000000      0.324999988       1.00000000       0.00000000       1.00000000    
   0.00000000      0.375000000       1.00000000       0.00000000       1.00000000    
   0.00000000      0.425000012       1.00000000       0.00000000       1.00000000    
   0.00000000      0.475000024       1.00000000       0.00000000       1.00000000    
   0.00000000      0.524999976       1.00000000       0.00000000       1.00000000    
   0.00000000      0.575000048       1.00000000       0.00000000       1.00000000    
   0.00000000      0.625000000       1.00000000       0.00000000       1.00000000    
   0.00000000      0.675000012       1.00000000       0.00000000       1.00000000    
   0.00000000      0.725000024       1.00000000       0.00000000       1.00000000    
   0.00000000      0.774999976       1.00000000       0.00000000       1.00000000    
   0.00000000      0.825000048       1.00000000       0.00000000       1.00000000    
   0.00000000      0.875000000       1.00000000       0.00000000       1.00000000    
   0.00000000      0.925000012       1.00000000       0.00000000       1.00000000    
   0.00000000      0.975000024       1.00000000       0.00000000       1.00000000    
   0.00000000       1.00000000       1.00000000       0.00000000       1.00000000    
   6.25000000E-02   0.00000000      0.500000000       0.00000000      0.500000000    
   6.25000000E-02   2.50000004E-02  0.716394663      0.111107342      0.724959433    
   6.25000000E-02   7.50000030E-02  0.920029640      0.251692086      0.953836203    
   6.25000000E-02  0.125000000       1.01081347      0.274337322       1.04737997    
   6.25000000E-02  0.175000012       1.04569209      0.246723413       1.07440412    
   6.25000000E-02  0.224999994       1.05387974      0.201885536       1.07304251    
   6.25000000E-02  0.275000006       1.05058289      0.155092239       1.06196892    
   6.25000000E-02  0.324999988       1.04357600      0.112420827       1.04961395    
   6.25000000E-02  0.375000000       1.03664660       7.53242448E-02   1.03937960    
   6.25000000E-02  0.425000012       1.03149962       4.30583656E-02   1.03239799    
   6.25000000E-02  0.475000024       1.02881813       1.39239319E-02   1.02891231    
   6.25000000E-02  0.524999976       1.02882385      -1.41403470E-02   1.02892101    
   6.25000000E-02  0.575000048       1.03151774      -4.32844460E-02   1.03242552    
   6.25000000E-02  0.625000000       1.03667760      -7.55698532E-02   1.03942835    
   6.25000000E-02  0.675000012       1.04362178     -0.112696707       1.04968894    
   6.25000000E-02  0.725000024       1.05064464     -0.155410290       1.06207657    
   6.25000000E-02  0.774999976       1.05395818     -0.202258468       1.07318974    
   6.25000000E-02  0.825000048       1.04578555     -0.247163087       1.07459617    
   6.25000000E-02  0.875000000       1.01091516     -0.274850905       1.04761279    
   6.25000000E-02  0.925000012      0.920127034     -0.252269179      0.954082549    
   6.25000000E-02  0.975000024      0.716463447     -0.111408718      0.725073636    
   6.25000000E-02   1.00000000      0.500000000       0.00000000      0.500000000    
  0.187500000       0.00000000       0.00000000       0.00000000       0.00000000    
  0.187500000       2.50000004E-02  0.338647217       3.53015773E-02  0.340482205    
  0.187500000       7.50000030E-02  0.729929984      0.112118244      0.738490522    
  0.187500000      0.125000000      0.948125124      0.180500627      0.965153754    
  0.187500000      0.175000012       1.06149650      0.216791078       1.08340812    
  0.187500000      0.224999994       1.11327243      0.221477866       1.13508940    
  0.187500000      0.275000006       1.13091111      0.202312276       1.14886475    
  0.187500000      0.324999988       1.13154793      0.167593867       1.14389181    
  0.187500000      0.375000000       1.12555671      0.123868600       1.13235211    
  0.187500000      0.425000012       1.11895156       7.55209327E-02   1.12149715    
  0.187500000      0.475000024       1.11496174       2.51485817E-02   1.11524534    
  0.187500000      0.524999976       1.11497974      -2.57756300E-02   1.11527765    
  0.187500000      0.575000048       1.11900592      -7.61578828E-02   1.12159455    
  0.187500000      0.625000000       1.12564635     -0.124523729       1.13251305    
  0.187500000      0.675000012       1.13167238     -0.168272734       1.14411449    
  0.187500000      0.725000024       1.13106775     -0.203016400       1.14914310    
  0.187500000      0.774999976       1.11345506     -0.222203910       1.13541043    
  0.187500000      0.825000048       1.06169486     -0.217529804       1.08375049    
  0.187500000      0.875000000      0.948321939     -0.181237191      0.965485096    
  0.187500000      0.925000012      0.730100751     -0.112826347      0.738767087    
  0.187500000      0.975000024      0.338756055      -3.56440954E-02  0.340626150    
  0.187500000       1.00000000       0.00000000       0.00000000       0.00000000    
  0.312500000       0.00000000       0.00000000       0.00000000       0.00000000    
  0.312500000       2.50000004E-02  0.212881356       1.02941580E-02  0.213130102    
  0.312500000       7.50000030E-02  0.558699608       4.24920693E-02  0.560313165    
  0.312500000      0.125000000      0.813597858       8.62725452E-02  0.818159163    
  0.312500000      0.175000012      0.987717927      0.123173758      0.995368540    
  0.312500000      0.224999994       1.09838176      0.143828169       1.10775852    
  0.312500000      0.275000006       1.16332805      0.145858467       1.17243624    
  0.312500000      0.324999988       1.19786835      0.130957946       1.20500565    
  0.312500000      0.375000000       1.21396720      0.102667198       1.21830082    
  0.312500000      0.425000012       1.22019601       6.50297031E-02   1.22192764    
  0.312500000      0.475000024       1.22200584       2.19640024E-02   1.22220325    
  0.312500000      0.524999976       1.22202992      -2.28721984E-02   1.22224391    
  0.312500000      0.575000048       1.22026587      -6.59369677E-02   1.22204602    
  0.312500000      0.625000000       1.21407747     -0.103570625       1.21848714    
  0.312500000      0.675000012       1.19801140     -0.131852657       1.20524538    
  0.312500000      0.725000024       1.16349268     -0.146737278       1.17270923    
  0.312500000      0.774999976       1.09855318     -0.144681454       1.10803962    
  0.312500000      0.825000048      0.987879097     -0.123990998      0.995629907    
  0.312500000      0.875000000      0.813733935      -8.70449096E-02  0.818376243    
  0.312500000      0.925000012      0.558797657      -4.32073064E-02  0.560465634    
  0.312500000      0.975000024      0.212935716      -1.06353806E-02  0.213201150    
  0.312500000       1.00000000       0.00000000       0.00000000       0.00000000    
  0.437500000       0.00000000       0.00000000       0.00000000       0.00000000    
  0.437500000       2.50000004E-02  0.168368876       2.80017871E-03  0.168392166    
  0.437500000       7.50000030E-02  0.467045933       1.52847460E-02  0.467295974    
  0.437500000      0.125000000      0.715710878       3.71800959E-02  0.716675937    
  0.437500000      0.175000012      0.910895586       6.00313991E-02  0.912871599    
  0.437500000      0.224999994       1.05586767       7.69843757E-02   1.05867040    
  0.437500000      0.275000006       1.15788174       8.40127617E-02   1.16092563    
  0.437500000      0.324999988       1.22574544       7.98162371E-02   1.22834134    
  0.437500000      0.375000000       1.26804233       6.52016252E-02   1.26971757    
  0.437500000      0.425000012       1.29196548       4.23771292E-02   1.29266024    
  0.437500000      0.475000024       1.30262005       1.43654309E-02   1.30269921    
  0.437500000      0.524999976       1.30263734      -1.54110957E-02   1.30272841    
  0.437500000      0.575000048       1.29201293      -4.34123725E-02   1.29274201    
  0.437500000      0.625000000       1.26811194      -6.62154257E-02   1.26983953    
  0.437500000      0.675000012       1.22582698      -8.07972997E-02   1.22848690    
  0.437500000      0.725000024       1.15796220      -8.49507600E-02   1.16107404    
  0.437500000      0.774999976       1.05593419      -7.78708458E-02   1.05880165    
  0.437500000      0.825000048      0.910937667      -6.08610287E-02  0.912968516    
  0.437500000      0.875000000      0.715727329      -3.79520170E-02  0.716732860    
  0.437500000      0.925000012      0.467046380      -1.59956515E-02  0.467320204    
  0.437500000      0.975000024      0.168375701      -3.13937664E-03  0.168404967    
  0.437500000       1.00000000       0.00000000       0.00000000       0.00000000    
  0.562500000       0.00000000       0.00000000       0.00000000       0.00000000    
  0.562500000       2.50000004E-02  0.149443805       5.87969662E-05  0.149443820    
  0.562500000       7.50000030E-02  0.420842290       3.84081295E-03  0.420859814    
  0.562500000      0.125000000      0.657936096       1.33951856E-02  0.658072412    
  0.562500000      0.175000012      0.856767535       2.51725707E-02  0.857137263    
  0.562500000      0.224999994       1.01661682       3.54430452E-02   1.01723444    
  0.562500000      0.275000006       1.13956428       4.13158014E-02   1.14031303    
  0.562500000      0.324999988       1.22957778       4.11811396E-02   1.23026717    
  0.562500000      0.375000000       1.29143310       3.47814895E-02   1.29190135    
  0.562500000      0.425000012       1.32968974       2.30347663E-02   1.32988918    
  0.562500000      0.475000024       1.34786749       7.73220090E-03   1.34788966    
  0.562500000      0.524999976       1.34786916      -8.80867243E-03   1.34789789    
  0.562500000      0.575000048       1.32968926      -2.40961984E-02   1.32990766    
  0.562500000      0.625000000       1.29142463      -3.58137824E-02   1.29192114    
  0.562500000      0.675000012       1.22955346      -4.21719179E-02   1.23027647    
  0.562500000      0.725000024       1.13951635      -4.22550961E-02   1.14029956    
  0.562500000      0.774999976       1.01654196      -3.63244042E-02   1.01719069    
  0.562500000      0.825000048      0.856667995      -2.59941146E-02  0.857062280    
  0.562500000      0.875000000      0.657825947      -1.41594708E-02  0.657978296    
  0.562500000      0.925000012      0.420750678      -4.54687933E-03  0.420775235    
  0.562500000      0.975000024      0.149411991      -3.96495365E-04  0.149412513    
  0.562500000       1.00000000       0.00000000       0.00000000       0.00000000    
  0.687500000       0.00000000       0.00000000       0.00000000       0.00000000    
  0.687500000       2.50000004E-02  0.140272439      -1.10198429E-03  0.140276775    
  0.687500000       7.50000030E-02  0.396638572      -1.32030610E-03  0.396640778    
  0.687500000      0.125000000      0.624811828       1.91337639E-03  0.624814749    
  0.687500000      0.175000012      0.822022676       7.14982022E-03  0.822053790    
  0.687500000      0.224999994      0.986941159       1.25183547E-02  0.987020552    
  0.687500000      0.275000006       1.11971128       1.63300484E-02   1.11983037    
  0.687500000      0.324999988       1.22173142       1.74185988E-02   1.22185552    
  0.687500000      0.375000000       1.29519010       1.53282825E-02   1.29528081    
  0.687500000      0.425000012       1.34246564       1.03359716E-02   1.34250546    
  0.687500000      0.475000024       1.36553717       3.33455601E-03   1.36554122    
  0.687500000      0.524999976       1.36551964      -4.37826570E-03   1.36552668    
  0.687500000      0.575000048       1.34240973      -1.13646556E-02   1.34245789    
  0.687500000      0.625000000       1.29509354      -1.63282827E-02   1.29519653    
  0.687500000      0.675000012       1.22159183      -1.83783360E-02   1.22172999    
  0.687500000      0.725000024       1.11952972      -1.72411315E-02   1.11966252    
  0.687500000      0.774999976      0.986725211      -1.33758644E-02  0.986815870    
  0.687500000      0.825000048      0.821788311      -7.95301236E-03  0.821826756    
  0.687500000      0.875000000      0.624587715      -2.66598538E-03  0.624593377    
  0.687500000      0.925000012      0.396467686       6.19297731E-04  0.396468163    
  0.687500000      0.975000024      0.140209347       7.65365374E-04  0.140211433    
  0.687500000       1.00000000       0.00000000       0.00000000       0.00000000    
  0.812500000       0.00000000       0.00000000       0.00000000       0.00000000    
  0.812500000       2.50000004E-02  0.135293186      -1.61842001E-03  0.135302857    
  0.812500000       7.50000030E-02  0.382890940      -3.69656901E-03  0.382908791    
  0.812500000      0.125000000      0.604808092      -3.57379811E-03  0.604818642    
  0.812500000      0.175000012      0.799175382      -1.80472608E-03  0.799177408    
  0.812500000      0.224999994      0.964819729       6.83869701E-04  0.964819968    
  0.812500000      0.275000006       1.10127223       2.96809548E-03   1.10127628    
  0.812500000      0.324999988       1.20875120       4.31987364E-03   1.20875895    
  0.812500000      0.375000000       1.28800762       4.34809830E-03   1.28801501    
  0.812500000      0.425000012       1.34004247       3.05565051E-03   1.34004593    
  0.812500000      0.475000024       1.36577153       8.05885356E-04   1.36577177    
  0.812500000      0.524999976       1.36573589      -1.78802060E-03   1.36573708    
  0.812500000      0.575000048       1.33993483      -4.02467279E-03   1.33994091    
  0.812500000      0.625000000       1.28783011      -5.29244915E-03   1.28784096    
  0.812500000      0.675000012       1.20850718      -5.22995088E-03   1.20851851    
  0.812500000      0.725000024       1.10097218      -3.83712864E-03   1.10097885    
  0.812500000      0.774999976      0.964481235      -1.50855700E-03  0.964482427    
  0.812500000      0.825000048      0.798826456       1.02402351E-03  0.798827112    
  0.812500000      0.875000000      0.604489088       2.83408724E-03  0.604495764    
  0.812500000      0.925000012      0.382654846       3.00127733E-03  0.382666588    
  0.812500000      0.975000024      0.135204524       1.28318800E-03  0.135210618    
  0.812500000       1.00000000       0.00000000       0.00000000       0.00000000    
  0.937500000       0.00000000       0.00000000       0.00000000       0.00000000    
  0.937500000       2.50000004E-02  0.132173285      -1.84649089E-03  0.132186174    
  0.937500000       7.50000030E-02  0.374051750      -4.77356603E-03  0.374082208    
  0.937500000      0.125000000      0.591359735      -6.12692721E-03  0.591391444    
  0.937500000      0.175000012      0.782747865      -6.08181860E-03  0.782771528    
  0.937500000      0.224999994      0.947276056      -5.11357468E-03  0.947289884    
  0.937500000      0.275000006       1.08432508      -3.73114459E-03   1.08433151    
  0.937500000      0.324999988       1.19361639      -2.37913337E-03   1.19361877    
  0.937500000      0.375000000       1.27518797      -1.35440566E-03   1.27518868    
  0.937500000      0.425000012       1.32928777      -7.60857831E-04   1.32928801    
  0.937500000      0.475000024       1.35621405      -5.14544197E-04   1.35621417    
  0.937500000      0.524999976       1.35616338      -3.97047726E-04   1.35616338    
  0.937500000      0.575000048       1.32913709      -1.40908203E-04   1.32913709    
  0.937500000      0.625000000       1.27494383       4.71837440E-04   1.27494395    
  0.937500000      0.675000012       1.19328821       1.52299821E-03   1.19328916    
  0.937500000      0.725000024       1.08393025       2.90631456E-03   1.08393419    
  0.937500000      0.774999976      0.946840823       4.32239147E-03  0.946850657    
  0.937500000      0.825000048      0.782309711       5.32403588E-03  0.782327890    
  0.937500000      0.875000000      0.590967178       5.40067349E-03  0.590991855    
  0.937500000      0.925000012      0.373766094       4.08399384E-03  0.373788416    
  0.937500000      0.975000024      0.132065833       1.51247473E-03  0.132074490    
  0.937500000       1.00000000       0.00000000       0.00000000       0.00000000    
   1.06250000       0.00000000       0.00000000       0.00000000       0.00000000    
   1.06250000       2.50000004E-02  0.129861981      -1.94262888E-03  0.129876509    
   1.06250000       7.50000030E-02  0.367450297      -5.24079939E-03  0.367487669    
   1.06250000      0.125000000      0.581031799      -7.26272911E-03  0.581077218    
   1.06250000      0.175000012      0.769531488      -8.02788883E-03  0.769573331    
   1.06250000      0.224999994      0.932183623      -7.80589879E-03  0.932216287    
   1.06250000      0.275000006       1.06836534      -6.89873332E-03   1.06838763    
   1.06250000      0.324999988       1.17760825      -5.59408125E-03   1.17762160    
   1.06250000      0.375000000       1.25962591      -4.12088167E-03   1.25963259    
   1.06250000      0.425000012       1.31429350      -2.62195361E-03   1.31429613    
   1.06250000      0.475000024       1.34158993      -1.15071959E-03   1.34159040    
   1.06250000      0.524999976       1.34152842       3.05539579E-04   1.34152842    
   1.06250000      0.575000048       1.31411123       1.78374420E-03   1.31411242    
   1.06250000      0.625000000       1.25933218       3.29601159E-03   1.25933647    
   1.06250000      0.675000012       1.17721784       4.78783064E-03   1.17722762    
   1.06250000      0.725000024       1.06790090       6.11491781E-03   1.06791842    
   1.06250000      0.774999976      0.931678116       7.04601221E-03  0.931704760    
   1.06250000      0.825000048      0.769029021       7.29161501E-03  0.769063592    
   1.06250000      0.875000000      0.580587149       6.54895278E-03  0.580624104    
   1.06250000      0.925000012      0.367130160       4.55646217E-03  0.367158413    
   1.06250000      0.975000024      0.129741639       1.60973822E-03  0.129751623    
   1.06250000       1.00000000       0.00000000       0.00000000       0.00000000    
   1.18750000       0.00000000       0.00000000       0.00000000       0.00000000    
   1.18750000       2.50000004E-02  0.127883539      -1.98024535E-03  0.127898872    
   1.18750000       7.50000030E-02  0.361819863      -5.43006323E-03  0.361860603    
   1.18750000      0.125000000      0.572112143      -7.73656322E-03  0.572164416    
   1.18750000      0.175000012      0.757822514      -8.85969121E-03  0.757874310    
   1.18750000      0.224999994      0.918300092      -8.98010097E-03  0.918344021    
   1.18750000      0.275000006       1.05295610      -8.30328651E-03   1.05298889    
   1.18750000      0.324999988       1.16126275      -7.03832274E-03   1.16128409    
   1.18750000      0.375000000       1.24279976      -5.37466072E-03   1.24281132    
   1.18750000      0.425000012       1.29727435      -3.46692884E-03   1.29727900    
   1.18750000      0.475000024       1.32451522      -1.43189880E-03   1.32451594    
   1.18750000      0.524999976       1.32444644       6.43240870E-04   1.32444656    
   1.18750000      0.575000048       1.29707122       2.68269377E-03   1.29707396    
   1.18750000      0.625000000       1.24247265       4.59907949E-03   1.24248111    
   1.18750000      0.675000012       1.16083002       6.27484964E-03   1.16084695    
   1.18750000      0.725000024       1.05244541       7.55405938E-03   1.05247259    
   1.18750000      0.774999976      0.917748928       8.24593566E-03  0.917786002    
   1.18750000      0.825000048      0.757279336       8.14062171E-03  0.757323146    
   1.18750000      0.875000000      0.571635008       7.03250989E-03  0.571678221    
   1.18750000      0.925000012      0.361478478       4.74969903E-03  0.361509681    
   1.18750000      0.975000024      0.127755195       1.64815073E-03  0.127765819    
   1.18750000       1.00000000       0.00000000       0.00000000       0.00000000    
   1.31250000       0.00000000       0.00000000       0.00000000       0.00000000    
   1.31250000       2.50000004E-02  0.126028538      -1.99291436E-03  0.126044288    
   1.31250000       7.50000030E-02  0.356579363      -5.49818203E-03  0.356621742    
   1.31250000      0.125000000      0.563785672      -7.91509077E-03  0.563841224    
   1.31250000      0.175000012      0.746775091      -9.18371975E-03  0.746831536    
   1.31250000      0.224999994      0.904970467      -9.44960490E-03  0.905019820    
   1.31250000      0.275000006       1.03782296      -8.87628272E-03   1.03786099    
   1.31250000      0.324999988       1.14479709      -7.63575174E-03   1.14482248    
   1.31250000      0.375000000       1.22542548      -5.89718949E-03   1.22543967    
   1.31250000      0.425000012       1.27934861      -3.81835061E-03   1.27935433    
   1.31250000      0.475000024       1.30633092      -1.54255633E-03   1.30633175    
   1.31250000      0.524999976       1.30625761       7.98269117E-04   1.30625784    
   1.31250000      0.575000048       1.27913272       3.07661295E-03   1.27913642    
   1.31250000      0.625000000       1.22507799       5.16052870E-03   1.22508883    
   1.31250000      0.675000012       1.14433885       6.90588076E-03   1.14435971    
   1.31250000      0.725000024       1.03728497       8.15409329E-03   1.03731704    
   1.31250000      0.774999976      0.904393375       8.73558782E-03  0.904435515    
   1.31250000      0.825000048      0.746209264       8.47812649E-03  0.746257424    
   1.31250000      0.875000000      0.563291311       7.21856533E-03  0.563337564    
   1.31250000      0.925000012      0.356227368       4.82086232E-03  0.356259972    
   1.31250000      0.975000024      0.125896573       1.66145095E-03  0.125907540    
   1.31250000       1.00000000       0.00000000       0.00000000       0.00000000    
   1.43750000       0.00000000       0.00000000       0.00000000       0.00000000    
   1.43750000       2.50000004E-02  0.124210775      -1.99607108E-03  0.124226816    
   1.43750000       7.50000030E-02  0.351475835      -5.51772118E-03  0.351519138    
   1.43750000      0.125000000      0.555683732      -7.97103904E-03  0.555740893    
   1.43750000      0.175000012      0.735992312      -9.29159764E-03  0.736050963    
   1.43750000      0.224999994      0.891874075      -9.61276889E-03  0.891925871    
   1.43750000      0.275000006       1.02281594      -9.08172783E-03   1.02285624    
   1.43750000      0.324999988       1.12829411      -7.85455480E-03   1.12832141    
   1.43750000      0.375000000       1.20783162      -6.09024148E-03   1.20784700    
   1.43750000      0.425000012       1.26104712      -3.94664239E-03   1.26105332    
   1.43750000      0.475000024       1.28768146      -1.57788419E-03   1.28768241    
   1.43750000      0.524999976       1.28760576       8.66041868E-04   1.28760600    
   1.43750000      0.575000048       1.26082432       3.23611032E-03   1.26082850    
   1.43750000      0.625000000       1.20747375       5.38180443E-03   1.20748580    
   1.43750000      0.675000012       1.12782371       7.14897597E-03   1.12784636    
   1.43750000      0.725000024       1.02226555       8.37933645E-03   1.02229989    
   1.43750000      0.774999976      0.891285717       8.91344063E-03  0.891330302    
   1.43750000      0.825000048      0.735417604       8.59545451E-03  0.735467851    
   1.43750000      0.875000000      0.555183768       7.27958651E-03  0.555231512    
   1.43750000      0.925000012      0.351121128       4.84248111E-03  0.351154506    
   1.43750000      0.975000024      0.124078527       1.66510034E-03  0.124089703    
   1.43750000       1.00000000       0.00000000       0.00000000       0.00000000    
   1.56250000       0.00000000       0.00000000       0.00000000       0.00000000    
   1.56250000       2.50000004E-02  0.122398809      -1.99613930E-03  0.122415081    
   1.56250000       7.50000030E-02  0.346407771      -5.51984413E-03  0.346451730    
   1.56250000      0.125000000      0.547651291      -7.98072014E-03  0.547709405    
   1.56250000      0.175000012      0.725300312      -9.31528863E-03  0.725360096    
   1.56250000      0.224999994      0.878864169      -9.65380203E-03  0.878917217    
   1.56250000      0.275000006       1.00786066      -9.13765095E-03   1.00790203    
   1.56250000      0.324999988       1.11178327      -7.91688357E-03   1.11181152    
   1.56250000      0.375000000       1.19015968      -6.14638068E-03   1.19017553    
   1.56250000      0.425000012       1.24260569      -3.98283405E-03   1.24261212    
   1.56250000      0.475000024       1.26885724      -1.58357632E-03   1.26885819    
   1.56250000      0.524999976       1.26878071       8.94281897E-04   1.26878107    
   1.56250000      0.575000048       1.24238122       3.29369260E-03   1.24238551    
   1.56250000      0.625000000       1.18979907       5.45725506E-03   1.18981159    
   1.56250000      0.675000012       1.11131060       7.22768344E-03   1.11133409    
   1.56250000      0.725000024       1.00730860       8.44818726E-03   1.00734401    
   1.56250000      0.774999976      0.878275394       8.96391459E-03  0.878321111    
   1.56250000      0.825000048      0.724726677       8.62537883E-03  0.724777997    
   1.56250000      0.875000000      0.547153473       7.29272468E-03  0.547202110    
   1.56250000      0.925000012      0.346055686       4.84585809E-03  0.346089602    
   1.56250000      0.975000024      0.122268155       1.66530756E-03  0.122279495    
   1.56250000       1.00000000       0.00000000       0.00000000       0.00000000    
   1.68750000       0.00000000       0.00000000       0.00000000       0.00000000    
   1.68750000       2.50000004E-02  0.120583221      -1.99561985E-03  0.120599732    
   1.68750000       7.50000030E-02  0.341339588      -5.51754795E-03  0.341384172    
   1.68750000      0.125000000      0.539629161      -7.97664840E-03  0.539688110    
   1.68750000      0.175000012      0.714628816      -9.31154191E-03  0.714689493    
   1.68750000      0.224999994      0.865878463      -9.65279527E-03  0.865932226    
   1.68750000      0.275000006      0.992922664      -9.14062373E-03  0.992964745    
   1.68750000      0.324999988       1.09527302      -7.92295486E-03   1.09530175    
   1.68750000      0.375000000       1.17246592      -6.15244219E-03   1.17248213    
   1.68750000      0.425000012       1.22412181      -3.98539566E-03   1.22412825    
   1.68750000      0.475000024       1.24997854      -1.58016081E-03   1.24997950    
   1.68750000      0.524999976       1.24990273       9.04498738E-04   1.24990308    
   1.68750000      0.575000048       1.22389889       3.30917444E-03   1.22390342    
   1.68750000      0.625000000       1.17210782       5.47461957E-03   1.17212057    
   1.68750000      0.675000012       1.09480405       7.24309031E-03   1.09482801    
   1.68750000      0.725000024      0.992375731       8.45868327E-03  0.992411733    
   1.68750000      0.774999976      0.865295768       8.96841288E-03  0.865342200    
   1.68750000      0.825000048      0.714062095       8.62513389E-03  0.714114189    
   1.68750000      0.875000000      0.539137959       7.29040522E-03  0.539187253    
   1.68750000      0.925000012      0.340992689       4.84402478E-03  0.341027081    
   1.68750000      0.975000024      0.120454624       1.66477775E-03  0.120466128    
   1.68750000       1.00000000       0.00000000       0.00000000       0.00000000    
   1.81250000       0.00000000       0.00000000       0.00000000       0.00000000    
   1.81250000       2.50000004E-02  0.118762285      -1.99521054E-03  0.118779041    
   1.81250000       7.50000030E-02  0.336260915      -5.51508274E-03  0.336306125    
   1.81250000      0.125000000      0.531597853      -7.97068700E-03  0.531657636    
   1.81250000      0.175000012      0.703952909      -9.30247270E-03  0.704014361    
   1.81250000      0.224999994      0.852893054      -9.64203756E-03  0.852947593    
   1.81250000      0.275000006      0.977987587      -9.12963040E-03  0.978030205    
   1.81250000      0.324999988       1.07876396      -7.91286957E-03   1.07879293    
   1.81250000      0.375000000       1.15476966      -6.14415947E-03   1.15478599    
   1.81250000      0.425000012       1.20563138      -3.97926848E-03   1.20563793    
   1.81250000      0.475000024       1.23109055      -1.57620979E-03   1.23109150    
   1.81250000      0.524999976       1.23101556       9.06299741E-04   1.23101592    
   1.81250000      0.575000048       1.20541155       3.30882450E-03   1.20541608    
   1.81250000      0.625000000       1.15441680       5.47207333E-03   1.15442979    
   1.81250000      0.675000012       1.07830191       7.23819574E-03   1.07832611    
   1.81250000      0.725000024      0.977449179       8.45157169E-03  0.977485716    
   1.81250000      0.774999976      0.852320254       8.96019116E-03  0.852367342    