 TITLE= "TESTPLOT" 
 VARIABLES="x","y","fx","fy","magf" 
 ZONE T="1", I=          81 , J=          21
   0.00000000       0.00000000       1.00000000       0.00000000       1.00000000    
   0.00000000       2.50000004E-02   1.00000000       0.00000000       1.00000000    
   0.00000000       7.50000030E-02   1.00000000       0.00000000       1.00000000    
   0.00000000      0.125000000       1.00000000       0.00000000       1.00000000    
   0.00000000      0.175000012       1.00000000       0.00000000       1.00000000    
   0.00000000      0.224999994       1.00000000       0.00000000       1.00000000    
   0.00000000      0.275000006       1.00000000       0.00000000       1.00000000    
   0.00000000      0.324999988       1.00000000       0.00000000       1.00000000    
   0.00000000      0.375000000       1.00000000       0.00000000       1.00000000    
   0.00000000      0.425000012       1.00000000       0.00000000       1.00000000    
   0.00000000      0.475000024       1.00000000       0.00000000       1.00000000    
   0.00000000      0.524999976       1.00000000       0.00000000       1.00000000    
   0.00000000      0.575000048       1.00000000       0.00000000       1.00000000    
   0.00000000      0.625000000       1.00000000       0.00000000       1.00000000    
   0.00000000      0.675000012       1.00000000       0.00000000       1.00000000    
   0.00000000      0.725000024       1.00000000       0.00000000       1.00000000    
   0.00000000      0.774999976       1.00000000       0.00000000       1.00000000    
   0.00000000      0.825000048       1.00000000       0.00000000       1.00000000    
   0.00000000      0.875000000       1.00000000       0.00000000       1.00000000    
   0.00000000      0.925000012       1.00000000       0.00000000       1.00000000    
   0.00000000      0.975000024       1.00000000       0.00000000       1.00000000    
   0.00000000       1.00000000       1.00000000       0.00000000       1.00000000    
   6.25000000E-02   0.00000000      0.500000000       0.00000000      0.500000000    
   6.25000000E-02   2.50000004E-02  0.716375172      0.111084759      0.724936664    
   6.25000000E-02   7.50000030E-02  0.919965267      0.251639962      0.953760326    
   6.25000000E-02  0.125000000       1.01072574      0.274280638       1.04728043    
   6.25000000E-02  0.175000012       1.04559779      0.246674120       1.07430112    
   6.25000000E-02  0.224999994       1.05378628      0.201846048       1.07294333    
   6.25000000E-02  0.275000006       1.05049109      0.155061573       1.06187367    
   6.25000000E-02  0.324999988       1.04348588      0.112397604       1.04952180    
   6.25000000E-02  0.375000000       1.03655708       7.53076151E-02   1.03928912    
   6.25000000E-02  0.425000012       1.03141010       4.30477634E-02   1.03230798    
   6.25000000E-02  0.475000024       1.02872849       1.39192408E-02   1.02882266    
   6.25000000E-02  0.524999976       1.02873456      -1.41389677E-02   1.02883172    
   6.25000000E-02  0.575000048       1.03142834      -4.32772115E-02   1.03233588    
   6.25000000E-02  0.625000000       1.03658819      -7.55570754E-02   1.03933823    
   6.25000000E-02  0.675000012       1.04353130     -0.112678066       1.04959702    
   6.25000000E-02  0.725000024       1.05055332     -0.155384704       1.06198239    
   6.25000000E-02  0.774999976       1.05386496     -0.202224612       1.07309186    
   6.25000000E-02  0.825000048       1.04569149     -0.247119725       1.07449472    
   6.25000000E-02  0.875000000       1.01082814     -0.274800479       1.04751551    
   6.25000000E-02  0.925000012      0.920063615     -0.252224088      0.954009414    
   6.25000000E-02  0.975000024      0.716444850     -0.111389846      0.725052357    
   6.25000000E-02   1.00000000      0.500000000       0.00000000      0.500000000    
  0.187500000       0.00000000       0.00000000       0.00000000       0.00000000    
  0.187500000       2.50000004E-02  0.338599980       3.52745950E-02  0.340432435    
  0.187500000       7.50000030E-02  0.729743719      0.112054631      0.738296807    
  0.187500000      0.125000000      0.947862029      0.180429801      0.964882076    
  0.187500000      0.175000012       1.06121016      0.216728896       1.08311510    
  0.187500000      0.224999994       1.11298752      0.221428171       1.13480020    
  0.187500000      0.275000006       1.13063288      0.202274114       1.14858413    
  0.187500000      0.324999988       1.13127530      0.167565167       1.14361787    
  0.187500000      0.375000000       1.12528682      0.123847760       1.13208163    
  0.187500000      0.425000012       1.11868262       7.55069703E-02   1.12122798    
  0.187500000      0.475000024       1.11469281       2.51408424E-02   1.11497629    
  0.187500000      0.524999976       1.11471105      -2.57771593E-02   1.11500907    
  0.187500000      0.575000048       1.11873698      -7.61530697E-02   1.12132585    
  0.187500000      0.625000000       1.12537646     -0.124512158       1.13224351    
  0.187500000      0.675000012       1.13139963     -0.168253735       1.14384198    
  0.187500000      0.725000024       1.13078952     -0.202988356       1.14886439    
  0.187500000      0.774999976       1.11317003     -0.222164333       1.13512313    
  0.187500000      0.825000048       1.06140828     -0.217477530       1.08345926    
  0.187500000      0.875000000      0.948059082     -0.181175947      0.965215385    
  0.187500000      0.925000012      0.729915023     -0.112771817      0.738575280    
  0.187500000      0.975000024      0.338709474      -3.56214941E-02  0.340577453    
  0.187500000       1.00000000       0.00000000       0.00000000       0.00000000    
  0.312500000       0.00000000       0.00000000       0.00000000       0.00000000    
  0.312500000       2.50000004E-02  0.212817758       1.02671068E-02  0.213065282    
  0.312500000       7.50000030E-02  0.558399975       4.24276367E-02  0.560009480    
  0.312500000      0.125000000      0.813160777       8.61996338E-02  0.817716837    
  0.312500000      0.175000012      0.987236679      0.123108812      0.994882941    
  0.312500000      0.224999994       1.09790158      0.143775657       1.10727561    
  0.312500000      0.275000006       1.16286016      0.145817518       1.17196691    
  0.312500000      0.324999988       1.19741082      0.130926847       1.20454741    
  0.312500000      0.375000000       1.21351540      0.102644548       1.21784878    
  0.312500000      0.425000012       1.21974659       6.50144592E-02   1.22147810    
  0.312500000      0.475000024       1.22155690       2.19556410E-02   1.22175419    
  0.312500000      0.524999976       1.22158098      -2.28735115E-02   1.22179508    
  0.312500000      0.575000048       1.21981633      -6.59309626E-02   1.22159684    
  0.312500000      0.625000000       1.21362555     -0.103557199       1.21803570    
  0.312500000      0.675000012       1.19755435     -0.131831065       1.20478868    
  0.312500000      0.725000024       1.16302443     -0.146706149       1.17224085    
  0.312500000      0.774999976       1.09807229     -0.144638777       1.10755730    
  0.312500000      0.825000048      0.987396955     -0.123935685      0.995144606    
  0.312500000      0.875000000      0.813295364      -8.69812071E-02  0.817933440    
  0.312500000      0.925000012      0.558496594      -4.31516059E-02  0.560161114    
  0.312500000      0.975000024      0.212870955      -1.06125949E-02  0.213135332    
  0.312500000       1.00000000       0.00000000       0.00000000       0.00000000    
  0.437500000       0.00000000       0.00000000       0.00000000       0.00000000    
  0.437500000       2.50000004E-02  0.168288246       2.77322112E-03  0.168311089    
  0.437500000       7.50000030E-02  0.466634750       1.52202211E-02  0.466882885    
  0.437500000      0.125000000      0.715102673       3.71063426E-02  0.716064751    
  0.437500000      0.175000012      0.910222173       5.99646196E-02  0.912195265    
  0.437500000      0.224999994       1.05519390       7.69291967E-02   1.05799448    
  0.437500000      0.275000006       1.15722454       8.39689523E-02   1.16026700    
  0.437500000      0.324999988       1.22510290       7.97824636E-02   1.22769797    
  0.437500000      0.375000000       1.26740742       6.51768297E-02   1.26908219    
  0.437500000      0.425000012       1.29133475       4.23605740E-02   1.29202938    
  0.437500000      0.475000024       1.30198979       1.43568991E-02   1.30206895    
  0.437500000      0.524999976       1.30200696      -1.54114291E-02   1.30209816    
  0.437500000      0.575000048       1.29138207      -4.34046127E-02   1.29211128    
  0.437500000      0.625000000       1.26747727      -6.61995560E-02   1.26920485    
  0.437500000      0.675000012       1.22518456      -8.07728395E-02   1.22784424    
  0.437500000      0.725000024       1.15730512      -8.49165022E-02   1.16041625    
  0.437500000      0.774999976       1.05525982      -7.78253973E-02   1.05812573    
  0.437500000      0.825000048      0.910263121      -6.08039200E-02  0.912291646    
  0.437500000      0.875000000      0.715117812      -3.78875956E-02  0.716120780    
  0.437500000      0.925000012      0.466633677      -1.59400571E-02  0.466905832    
  0.437500000      0.975000024      0.168293774      -3.11674876E-03  0.168322623    
  0.437500000       1.00000000       0.00000000       0.00000000       0.00000000    
  0.562500000       0.00000000       0.00000000       0.00000000       0.00000000    
  0.562500000       2.50000004E-02  0.149345517       3.19803694E-05  0.149345532    
  0.562500000       7.50000030E-02  0.420320332       3.77682666E-03  0.420337290    
  0.562500000      0.125000000      0.657158971       1.33222453E-02  0.657293975    
  0.562500000      0.175000012      0.855904818       2.51063183E-02  0.856272936    
  0.562500000      0.224999994       1.01575184       3.53879333E-02   1.01636803    
  0.562500000      0.275000006       1.13871932       4.12715450E-02   1.13946700    
  0.562500000      0.324999988       1.22875023       4.11464050E-02   1.22943890    
  0.562500000      0.375000000       1.29061520       3.47556397E-02   1.29108310    
  0.562500000      0.425000012       1.32887673       2.30177827E-02   1.32907605    
  0.562500000      0.475000024       1.34705615       7.72379618E-03   1.34707832    
  0.562500000      0.524999976       1.34705758      -8.80880561E-03   1.34708643    
  0.562500000      0.575000048       1.32887673      -2.40878798E-02   1.32909501    
  0.562500000      0.625000000       1.29060674      -3.57969925E-02   1.29110312    
  0.562500000      0.675000012       1.22872591      -4.21464220E-02   1.22944856    
  0.562500000      0.725000024       1.13867116      -4.22200114E-02   1.13945365    
  0.562500000      0.774999976       1.01567626      -3.62785459E-02   1.01632392    
  0.562500000      0.825000048      0.855803967      -2.59372704E-02  0.856196940    
  0.562500000      0.875000000      0.657047987      -1.40959434E-02  0.657199144    
  0.562500000      0.925000012      0.420227766      -4.49209660E-03  0.420251787    
  0.562500000      0.975000024      0.149312869      -3.74159979E-04  0.149313331    
  0.562500000       1.00000000       0.00000000       0.00000000       0.00000000    
  0.687500000       0.00000000       0.00000000       0.00000000       0.00000000    
  0.687500000       2.50000004E-02  0.140156239      -1.12826203E-03  0.140160769    
  0.687500000       7.50000030E-02  0.396006763      -1.38313253E-03  0.396009177    
  0.687500000      0.125000000      0.623867214       1.84181170E-03  0.623869956    
  0.687500000      0.175000012      0.820971966       7.08530005E-03  0.821002543    
  0.687500000      0.224999994      0.985886574       1.24650933E-02  0.985965371    
  0.687500000      0.275000006       1.11868000       1.62874870E-02   1.11879849    
  0.687500000      0.324999988       1.22072005       1.73852406E-02   1.22084379    
  0.687500000      0.375000000       1.29419041       1.53033715E-02   1.29428089    
  0.687500000      0.425000012       1.34147120       1.03191650E-02   1.34151089    
  0.687500000      0.475000024       1.36454463       3.32579645E-03   1.36454868    
  0.687500000      0.524999976       1.36452723      -4.37887711E-03   1.36453426    
  0.687500000      0.575000048       1.34141541      -1.13572422E-02   1.34146345    
  0.687500000      0.625000000       1.29409385      -1.63127966E-02   1.29419661    
  0.687500000      0.675000012       1.22058046      -1.83543600E-02   1.22071850    
  0.687500000      0.725000024       1.11849785      -1.72077175E-02   1.11863029    
  0.687500000      0.774999976      0.985669732      -1.33316927E-02  0.985759854    
  0.687500000      0.825000048      0.820736289      -7.89763406E-03  0.820774257    
  0.687500000      0.875000000      0.623641729      -2.60366919E-03  0.623647153    
  0.687500000      0.925000012      0.395834625       6.73210539E-04  0.395835191    
  0.687500000      0.975000024      0.140092462       7.87375146E-04  0.140094683    
  0.687500000       1.00000000       0.00000000       0.00000000       0.00000000    
  0.812500000       0.00000000       0.00000000       0.00000000       0.00000000    
  0.812500000       2.50000004E-02  0.135158539      -1.64436386E-03  0.135168537    
  0.812500000       7.50000030E-02  0.382149309      -3.75814387E-03  0.382167786    
  0.812500000      0.125000000      0.603696346      -3.64336930E-03  0.603707314    
  0.812500000      0.175000012      0.797937155      -1.86697568E-03  0.797939360    
  0.812500000      0.224999994      0.963576078       6.33135787E-04  0.963576257    
  0.812500000      0.275000006       1.10005617       2.92837434E-03   1.10006011    
  0.812500000      0.324999988       1.20755911       4.28953115E-03   1.20756674    
  0.812500000      0.375000000       1.28682971       4.32574097E-03   1.28683698    
  0.812500000      0.425000012       1.33887076       3.04057403E-03   1.33887422    
  0.812500000      0.475000024       1.36460137       7.97781744E-04   1.36460161    
  0.812500000      0.524999976       1.36456597      -1.78927695E-03   1.36456716    
  0.812500000      0.575000048       1.33876276      -4.01901547E-03   1.33876872    
  0.812500000      0.625000000       1.28665161      -5.27964439E-03   1.28666246    
  0.812500000      0.675000012       1.20731473      -5.20933419E-03   1.20732594    
  0.812500000      0.725000024       1.09975553      -3.80727323E-03   1.09976208    
  0.812500000      0.774999976      0.963237047      -1.46775134E-03  0.963238180    
  0.812500000      0.825000048      0.797587037       1.07674161E-03  0.797587752    
  0.812500000      0.875000000      0.603375852       2.89473124E-03  0.603382826    
  0.812500000      0.925000012      0.381912082       3.05421930E-03  0.381924301    
  0.812500000      0.975000024      0.135069609       1.30486675E-03  0.135075912    
  0.812500000       1.00000000       0.00000000       0.00000000       0.00000000    
  0.937500000       0.00000000       0.00000000       0.00000000       0.00000000    
  0.937500000       2.50000004E-02  0.132020965      -1.87184766E-03  0.132034227    
  0.937500000       7.50000030E-02  0.373201072      -4.83356463E-03  0.373232365    
  0.937500000      0.125000000      0.590081692      -6.19403319E-03  0.590114176    
  0.937500000      0.175000012      0.781323135      -6.14088587E-03  0.781347275    
  0.937500000      0.224999994      0.945844889      -5.16097154E-03  0.945858955    
  0.937500000      0.275000006       1.08292627      -3.76761518E-03   1.08293283    
  0.937500000      0.324999988       1.19224656      -2.40648072E-03   1.19224894    
  0.937500000      0.375000000       1.27383506      -1.37409312E-03   1.27383578    
  0.937500000      0.425000012       1.32794285      -7.73954438E-04   1.32794309    
  0.937500000      0.475000024       1.35487211      -5.22342685E-04   1.35487223    
  0.937500000      0.524999976       1.35482168      -3.99805314E-04   1.35482180    
  0.937500000      0.575000048       1.32779264      -1.38195348E-04   1.32779264    
  0.937500000      0.625000000       1.27359045       4.80837538E-04   1.27359056    
  0.937500000      0.675000012       1.19191718       1.53965841E-03   1.19191813    
  0.937500000      0.725000024       1.08253002       2.93232175E-03   1.08253396    
  0.937500000      0.774999976      0.945408702       4.36001783E-03  0.945418775    
  0.937500000      0.825000048      0.780883372       5.37444558E-03  0.780901849    
  0.937500000      0.875000000      0.589687109       5.45954611E-03  0.589712381    
  0.937500000      0.925000012      0.372913629       4.13579401E-03  0.372936577    
  0.937500000      0.975000024      0.131912500       1.53378095E-03  0.131921411    
  0.937500000       1.00000000       0.00000000       0.00000000       0.00000000    
   1.06250000       0.00000000       0.00000000       0.00000000       0.00000000    
   1.06250000       2.50000004E-02  0.129691437      -1.96773675E-03  0.129706368    
   1.06250000       7.50000030E-02  0.366490364      -5.29996585E-03  0.366528690    
   1.06250000      0.125000000      0.579587638      -7.32847070E-03  0.579633951    
   1.06250000      0.175000012      0.767920971      -8.08503293E-03  0.767963529    
   1.06250000      0.224999994      0.930566490      -7.85060506E-03  0.930599570    
   1.06250000      0.275000006       1.06678581      -6.93218037E-03   1.06680834    
   1.06250000      0.324999988       1.17606330      -5.61882602E-03   1.17607665    
   1.06250000      0.375000000       1.25810122      -4.13909229E-03   1.25810802    
   1.06250000      0.425000012       1.31277931      -2.63489969E-03   1.31278193    
   1.06250000      0.475000024       1.34008050      -1.15914468E-03   1.34008098    
   1.06250000      0.524999976       1.34001923       3.01432359E-04   1.34001923    
   1.06250000      0.575000048       1.31259763       1.78437110E-03   1.31259882    
   1.06250000      0.625000000       1.25780654       3.30254901E-03   1.25781083    
   1.06250000      0.675000012       1.17567039       4.80187964E-03   1.17568016    
   1.06250000      0.725000024       1.06631899       6.13807887E-03   1.06633663    
   1.06250000      0.774999976      0.930058837       7.08058570E-03  0.930085778    
   1.06250000      0.825000048      0.767416239       7.33919349E-03  0.767451346    
   1.06250000      0.875000000      0.579140425       6.60555018E-03  0.579178095    
   1.06250000      0.925000012      0.366167873       4.60689515E-03  0.366196841    
   1.06250000      0.975000024      0.129569709       1.63064047E-03  0.129579976    
   1.06250000       1.00000000       0.00000000       0.00000000       0.00000000    
   1.18750000       0.00000000       0.00000000       0.00000000       0.00000000    
   1.18750000       2.50000004E-02  0.127693340      -2.00481410E-03  0.127709076    
   1.18750000       7.50000030E-02  0.360750228      -5.48810791E-03  0.360791951    
   1.18750000      0.125000000      0.570502222      -7.80092785E-03  0.570555568    
   1.18750000      0.175000012      0.756027460      -8.91505368E-03  0.756080031    
   1.18750000      0.224999994      0.916498423      -9.02270619E-03  0.916542828    
   1.18750000      0.275000006       1.05119824      -8.33456591E-03   1.05123127    
   1.18750000      0.324999988       1.15954590      -7.06092967E-03   1.15956736    
   1.18750000      0.375000000       1.24110782      -5.39095001E-03   1.24111950    
   1.18750000      0.425000012       1.29559612      -3.47879576E-03   1.29560077    
   1.18750000      0.475000024       1.32284248      -1.44018570E-03   1.32284331    
   1.18750000      0.524999976       1.32277405       6.38467085E-04   1.32277417    
   1.18750000      0.575000048       1.29539227       2.68164277E-03   1.29539502    
   1.18750000      0.625000000       1.24077797       4.60291374E-03   1.24078655    
   1.18750000      0.675000012       1.15910912       6.28561899E-03   1.15912616    
   1.18750000      0.725000024       1.05068350       7.57412519E-03   1.05071080    
   1.18750000      0.774999976      0.915943146       8.27793404E-03  0.915980577    
   1.18750000      0.825000048      0.755480230       8.18601344E-03  0.755524576    
   1.18750000      0.875000000      0.570021749       7.08738063E-03  0.570065796    
   1.18750000      0.925000012      0.360406369       4.79893759E-03  0.360438317    
   1.18750000      0.975000024      0.127564132       1.66857126E-03  0.127575055    
   1.18750000       1.00000000       0.00000000       0.00000000       0.00000000    
   1.31250000       0.00000000       0.00000000       0.00000000       0.00000000    
   1.31250000       2.50000004E-02  0.125819147      -2.01712106E-03  0.125835314    
   1.31250000       7.50000030E-02  0.355401665      -5.55530656E-03  0.355445087    
   1.31250000      0.125000000      0.562012196      -7.97833130E-03  0.562068820    
   1.31250000      0.175000012      0.744797885      -9.23796929E-03  0.744855225    
   1.31250000      0.224999994      0.902987182      -9.49117262E-03  0.903037071    
   1.31250000      0.275000006       1.03589022      -8.90664198E-03   1.03592849    
   1.31250000      0.324999988       1.14291191      -7.65761826E-03   1.14293754    
   1.31250000      0.375000000       1.22357070      -5.91311976E-03   1.22358501    
   1.31250000      0.425000012       1.27751064      -3.83002381E-03   1.27751637    
   1.31250000      0.475000024       1.30449986      -1.55096652E-03   1.30450082    
   1.31250000      0.524999976       1.30442667       7.92777690E-04   1.30442691    
   1.31250000      0.575000048       1.27729273       3.07467091E-03   1.27729642    
   1.31250000      0.625000000       1.22321880       5.16338600E-03   1.22322977    
   1.31250000      0.675000012       1.14244819       6.91547291E-03   1.14246905    
   1.31250000      0.725000024       1.03534579       8.17289297E-03   1.03537798    
   1.31250000      0.774999976      0.902403533       8.76635592E-03  0.902446091    
   1.31250000      0.825000048      0.744225919       8.52223299E-03  0.744274735    
   1.31250000      0.875000000      0.561513126       7.27216108E-03  0.561560214    
   1.31250000      0.925000012      0.355046362       4.86919517E-03  0.355079740    
   1.31250000      0.975000024      0.125686139       1.68156170E-03  0.125697389    
   1.31250000       1.00000000       0.00000000       0.00000000       0.00000000    
   1.43750000       0.00000000       0.00000000       0.00000000       0.00000000    
   1.43750000       2.50000004E-02  0.123982623      -2.01979419E-03  0.123999074    
   1.43750000       7.50000030E-02  0.350192010      -5.57349017E-03  0.350236356    
   1.43750000      0.125000000      0.553749800      -8.03281832E-03  0.553808033    
   1.43750000      0.175000012      0.733836055      -9.34510026E-03  0.733895540    
   1.43750000      0.224999994      0.889712334      -9.65427049E-03  0.889764726    
   1.43750000      0.275000006       1.02071142      -9.11231432E-03   1.02075207    
   1.43750000      0.324999988       1.12624407      -7.87687115E-03   1.12627161    
   1.43750000      0.375000000       1.20581722      -6.10671658E-03   1.20583272    
   1.43750000      0.425000012       1.25905228      -3.95886600E-03   1.25905848    
   1.43750000      0.475000024       1.28569531      -1.58663956E-03   1.28569627    
   1.43750000      0.524999976       1.28561902       8.60686996E-04   1.28561926    
   1.43750000      0.575000048       1.25882673       3.23463092E-03   1.25883090    
   1.43750000      0.625000000       1.20545340       5.38497232E-03   1.20546544    
   1.43750000      0.675000012       1.12576604       7.15857279E-03   1.12578881    
   1.43750000      0.725000024       1.02015233       8.39793868E-03   1.02018690    
   1.43750000      0.774999976      0.889115095       8.94358195E-03  0.889160097    
   1.43750000      0.825000048      0.733253121       8.63858499E-03  0.733303964    
   1.43750000      0.875000000      0.553243279       7.33204000E-03  0.553291857    
   1.43750000      0.925000012      0.349832833       4.88970894E-03  0.349867016    
   1.43750000      0.975000024      0.123848684       1.68470631E-03  0.123860143    
   1.43750000       1.00000000       0.00000000       0.00000000       0.00000000    
   1.56250000       0.00000000       0.00000000       0.00000000       0.00000000    
   1.56250000       2.50000004E-02  0.122151963      -2.01928825E-03  0.122168653    
   1.56250000       7.50000030E-02  0.345020086      -5.57453465E-03  0.345065117    
   1.56250000      0.125000000      0.545560360      -8.04173853E-03  0.545619607    
   1.56250000      0.175000012      0.722968698      -9.36864503E-03  0.723029435    
   1.56250000      0.224999994      0.876527667      -9.69601516E-03  0.876581311    
   1.56250000      0.275000006       1.00558746      -9.16972011E-03   1.00562930    
   1.56250000      0.324999988       1.10957098      -7.94068724E-03   1.10959935    
   1.56250000      0.375000000       1.18798780      -6.16374239E-03   1.18800378    
   1.56250000      0.425000012       1.24045682      -3.99539527E-03   1.24046326    
   1.56250000      0.475000024       1.26671791      -1.59225927E-03   1.26671886    
   1.56250000      0.524999976       1.26664078       8.89057002E-04   1.26664114    
   1.56250000      0.575000048       1.24022830       3.29228165E-03   1.24023259    
   1.56250000      0.625000000       1.18761992       5.46113122E-03   1.18763244    
   1.56250000      0.675000012       1.10908842       7.23860320E-03   1.10911202    
   1.56250000      0.725000024       1.00502431       8.46810639E-03   1.00506008    
   1.56250000      0.774999976      0.875927448       8.99502262E-03  0.875973582    
   1.56250000      0.825000048      0.722384572       8.66887067E-03  0.722436607    
   1.56250000      0.875000000      0.545054138       7.34503567E-03  0.545103610    
   1.56250000      0.925000012      0.344662011       4.89266077E-03  0.344696730    
   1.56250000      0.975000024      0.122018650       1.68466102E-03  0.122030281    
   1.56250000       1.00000000       0.00000000       0.00000000       0.00000000    
   1.68750000       0.00000000       0.00000000       0.00000000       0.00000000    
   1.68750000       2.50000004E-02  0.120318376      -2.01830291E-03  0.120335303    
   1.68750000       7.50000030E-02  0.339851201      -5.57140261E-03  0.339896858    
   1.68750000      0.125000000      0.537386060      -8.03735480E-03  0.537446201    
   1.68750000      0.175000012      0.712127090      -9.36540030E-03  0.712188721    
   1.68750000      0.224999994      0.863371611      -9.69608128E-03  0.863426030    
   1.68750000      0.275000006      0.990484953      -9.17393435E-03  0.990527451    
   1.68750000      0.324999988       1.09290147      -7.94793479E-03   1.09293032    
   1.68750000      0.375000000       1.17013931      -6.17107563E-03   1.17015553    
   1.68750000      0.425000012       1.22182131      -3.99901113E-03   1.22182786    
   1.68750000      0.475000024       1.24768853      -1.58913271E-03   1.24768949    
   1.68750000      0.524999976       1.24761152       8.99954757E-04   1.24761188    
   1.68750000      0.575000048       1.22159314       3.30939237E-03   1.22159767    
   1.68750000      0.625000000       1.16977239       5.48071694E-03   1.16978526    
   1.68750000      0.675000012       1.09242058       7.25633278E-03   1.09244466    
   1.68750000      0.725000024      0.989924669       8.48057494E-03  0.989961028    
   1.68750000      0.774999976      0.862775505       9.00097005E-03  0.862822413    
   1.68750000      0.825000048      0.711547911       8.66931863E-03  0.711600721    
   1.68750000      0.875000000      0.536884844       7.34249502E-03  0.536935091    
   1.68750000      0.925000012      0.339497209       4.89019789E-03  0.339532435    
   1.68750000      0.975000024      0.120186716       1.68383447E-03  0.120198511    
   1.68750000       1.00000000       0.00000000       0.00000000       0.00000000    
   1.81250000       0.00000000       0.00000000       0.00000000       0.00000000    
   1.81250000       2.50000004E-02  0.118479505      -2.01749871E-03  0.118496679    
   1.81250000       7.50000030E-02  0.334674835      -5.56828594E-03  0.334721148    
   1.81250000      0.125000000      0.529207349      -8.03109445E-03  0.529268265    
   1.81250000      0.175000012      0.701286435      -9.35645774E-03  0.701348841    
   1.81250000      0.224999994      0.850220680      -9.68584232E-03  0.850275815    
   1.81250000      0.275000006      0.975388646      -9.16398130E-03  0.975431681    
   1.81250000      0.324999988       1.07623601      -7.93935917E-03   1.07626534    
   1.81250000      0.375000000       1.15228987      -6.16387464E-03   1.15230632    
   1.81250000      0.425000012       1.20317984      -3.99292726E-03   1.20318651    
   1.81250000      0.475000024       1.22865045      -1.58426818E-03   1.22865152    
   1.81250000      0.524999976       1.22857428       9.03562759E-04   1.22857463    
   1.81250000      0.575000048       1.20295429       3.31138587E-03   1.20295882    
   1.81250000      0.625000000       1.15192771       5.48027735E-03   1.15194070    
   1.81250000      0.675000012       1.07576132       7.25305453E-03   1.07578576    
   1.81250000      0.725000024      0.974836051       8.47488269E-03  0.974872887    
   1.81250000      0.774999976      0.849633098       8.99387151E-03  0.849680662    