 TITLE= "TESTPLOT" 
 VARIABLES="x","y","fx","fy","magf" 
 ZONE T="1", I=          81 , J=          21
   0.00000000       0.00000000       1.00000000       0.00000000       1.00000000    
   0.00000000       2.50000004E-02   1.00000000       0.00000000       1.00000000    
   0.00000000       7.50000030E-02   1.00000000       0.00000000       1.00000000    
   0.00000000      0.125000000       1.00000000       0.00000000       1.00000000    
   0.00000000      0.175000012       1.00000000       0.00000000       1.00000000    
   0.00000000      0.224999994       1.00000000       0.00000000       1.00000000    
   0.00000000      0.275000006       1.00000000       0.00000000       1.00000000    
   0.00000000      0.324999988       1.00000000       0.00000000       1.00000000    
   0.00000000      0.375000000       1.00000000       0.00000000       1.00000000    
   0.00000000      0.425000012       1.00000000       0.00000000       1.00000000    
   0.00000000      0.475000024       1.00000000       0.00000000       1.00000000    
   0.00000000      0.524999976       1.00000000       0.00000000       1.00000000    
   0.00000000      0.575000048       1.00000000       0.00000000       1.00000000    
   0.00000000      0.625000000       1.00000000       0.00000000       1.00000000    
   0.00000000      0.675000012       1.00000000       0.00000000       1.00000000    
   0.00000000      0.725000024       1.00000000       0.00000000       1.00000000    
   0.00000000      0.774999976       1.00000000       0.00000000       1.00000000    
   0.00000000      0.825000048       1.00000000       0.00000000       1.00000000    
   0.00000000      0.875000000       1.00000000       0.00000000       1.00000000    
   0.00000000      0.925000012       1.00000000       0.00000000       1.00000000    
   0.00000000      0.975000024       1.00000000       0.00000000       1.00000000    
   0.00000000       1.00000000       1.00000000       0.00000000       1.00000000    
   6.25000000E-02   0.00000000      0.500000000       0.00000000      0.500000000    
   6.25000000E-02   2.50000004E-02  0.716385961      0.111085780      0.724947512    
   6.25000000E-02   7.50000030E-02  0.919981003      0.251641154      0.953775823    
   6.25000000E-02  0.125000000       1.01074076      0.274280369       1.04729497    
   6.25000000E-02  0.175000012       1.04561138      0.246673122       1.07431412    
   6.25000000E-02  0.224999994       1.05379927      0.201845109       1.07295597    
   6.25000000E-02  0.275000006       1.05050445      0.155061021       1.06188679    
   6.25000000E-02  0.324999988       1.04349887      0.112397596       1.04953468    
   6.25000000E-02  0.375000000       1.03657031       7.53079802E-02   1.03930235    
   6.25000000E-02  0.425000012       1.03142357       4.30485271E-02   1.03232157    
   6.25000000E-02  0.475000024       1.02874255       1.39201367E-02   1.02883673    
   6.25000000E-02  0.524999976       1.02874827      -1.41383195E-02   1.02884543    
   6.25000000E-02  0.575000048       1.03144169      -4.32764404E-02   1.03234923    
   6.25000000E-02  0.625000000       1.03660190      -7.55558088E-02   1.03935182    
   6.25000000E-02  0.675000012       1.04354501     -0.112676315       1.04961038    
   6.25000000E-02  0.725000024       1.05056655     -0.155382633       1.06199527    
   6.25000000E-02  0.774999976       1.05387783     -0.202222109       1.07310402    
   6.25000000E-02  0.825000048       1.04570508     -0.247117117       1.07450736    
   6.25000000E-02  0.875000000       1.01084292     -0.274798632       1.04752934    
   6.25000000E-02  0.925000012      0.920079231     -0.252223521      0.954024374    
   6.25000000E-02  0.975000024      0.716455400     -0.111389972      0.725062788    
   6.25000000E-02   1.00000000      0.500000000       0.00000000      0.500000000    
  0.187500000       0.00000000       0.00000000       0.00000000       0.00000000    
  0.187500000       2.50000004E-02  0.338632345       3.52750868E-02  0.340464681    
  0.187500000       7.50000030E-02  0.729791641      0.112054244      0.738344073    
  0.187500000      0.125000000      0.947907329      0.180427104      0.964926004    
  0.187500000      0.175000012       1.06125093      0.216725215       1.08315432    
  0.187500000      0.224999994       1.11302590      0.221424818       1.13483727    
  0.187500000      0.275000006       1.13067138      0.202271640       1.14862168    
  0.187500000      0.324999988       1.13131356      0.167563498       1.14365554    
  0.187500000      0.375000000       1.12532544      0.123846725       1.13211989    
  0.187500000      0.425000012       1.11872172       7.55065829E-02   1.12126696    
  0.187500000      0.475000024       1.11473310       2.51410678E-02   1.11501658    
  0.187500000      0.524999976       1.11475110      -2.57765260E-02   1.11504912    
  0.187500000      0.575000048       1.11877632      -7.61518329E-02   1.12136507    
  0.187500000      0.625000000       1.12541604     -0.124510005       1.13228261    
  0.187500000      0.675000012       1.13143849     -0.168250591       1.14387989    
  0.187500000      0.725000024       1.13082814     -0.202984363       1.14890158    
  0.187500000      0.774999976       1.11320829     -0.222159684       1.13515973    
  0.187500000      0.825000048       1.06144941     -0.217472523       1.08349860    
  0.187500000      0.875000000      0.948104560     -0.181171745      0.965259254    
  0.187500000      0.925000012      0.729963005     -0.112769902      0.738622367    
  0.187500000      0.975000024      0.338741779      -3.56212519E-02  0.340609550    
  0.187500000       1.00000000       0.00000000       0.00000000       0.00000000    
  0.312500000       0.00000000       0.00000000       0.00000000       0.00000000    
  0.312500000       2.50000004E-02  0.212871581       1.02675715E-02  0.213119060    
  0.312500000       7.50000030E-02  0.558480442       4.24271859E-02  0.560089707    
  0.312500000      0.125000000      0.813236654       8.61968026E-02  0.817791998    
  0.312500000      0.175000012      0.987304688      0.123104647      0.994949937    
  0.312500000      0.224999994       1.09796476      0.143771589       1.10733771    
  0.312500000      0.275000006       1.16292214      0.145814389       1.17202806    
  0.312500000      0.324999988       1.19747329      0.130924687       1.20460927    
  0.312500000      0.375000000       1.21357822      0.102643423       1.21791124    
  0.312500000      0.425000012       1.21981001       6.50143027E-02   1.22154140    
  0.312500000      0.475000024       1.22162163       2.19561700E-02   1.22181892    
  0.312500000      0.524999976       1.22164571      -2.28724461E-02   1.22185981    
  0.312500000      0.575000048       1.21988034      -6.59294650E-02   1.22166061    
  0.312500000      0.625000000       1.21368897     -0.103555091       1.21809876    
  0.312500000      0.675000012       1.19761646     -0.131828085       1.20485008    
  0.312500000      0.725000024       1.16308641     -0.146701902       1.17230177    
  0.312500000      0.774999976       1.09813523     -0.144633293       1.10761905    
  0.312500000      0.825000048      0.987465501     -0.123930112      0.995211959    
  0.312500000      0.875000000      0.813372135      -8.69769752E-02  0.818009317    
  0.312500000      0.925000012      0.558577538      -4.31498401E-02  0.560241699    
  0.312500000      0.975000024      0.212925017      -1.06124319E-02  0.213189319    
  0.312500000       1.00000000       0.00000000       0.00000000       0.00000000    
  0.437500000       0.00000000       0.00000000       0.00000000       0.00000000    
  0.437500000       2.50000004E-02  0.168363288       2.77384883E-03  0.168386146    
  0.437500000       7.50000030E-02  0.466747850       1.52201466E-02  0.466995955    
  0.437500000      0.125000000      0.715209544       3.71038765E-02  0.716171324    
  0.437500000      0.175000012      0.910317302       5.99607080E-02  0.912289917    
  0.437500000      0.224999994       1.05528164       7.69252479E-02   1.05808175    
  0.437500000      0.275000006       1.15731049       8.39657634E-02   1.16035247    
  0.437500000      0.324999988       1.22518897       7.97802210E-02   1.22778380    
  0.437500000      0.375000000       1.26749492       6.51754811E-02   1.26916945    
  0.437500000      0.425000012       1.29142261       4.23600264E-02   1.29211712    
  0.437500000      0.475000024       1.30207920       1.43571328E-02   1.30215836    
  0.437500000      0.524999976       1.30209613      -1.54103804E-02   1.30218732    
  0.437500000      0.575000048       1.29147053      -4.34026085E-02   1.29219961    
  0.437500000      0.625000000       1.26756454      -6.61966428E-02   1.26929188    
  0.437500000      0.675000012       1.22527051      -8.07690546E-02   1.22792971    
  0.437500000      0.725000024       1.15739083      -8.49118233E-02   1.16050148    
  0.437500000      0.774999976       1.05534744      -7.78199434E-02   1.05821276    
  0.437500000      0.825000048      0.910359144      -6.07985631E-02  0.912387073    
  0.437500000      0.875000000      0.715225697      -3.78836766E-02  0.716228306    
  0.437500000      0.925000012      0.466747344      -1.59384254E-02  0.467019409    
  0.437500000      0.975000024      0.168369487      -3.11656995E-03  0.168398336    
  0.437500000       1.00000000       0.00000000       0.00000000       0.00000000    
  0.562500000       0.00000000       0.00000000       0.00000000       0.00000000    
  0.562500000       2.50000004E-02  0.149442658       3.24713001E-05  0.149442658    
  0.562500000       7.50000030E-02  0.420466900       3.77652212E-03  0.420483857    
  0.562500000      0.125000000      0.657297909       1.33196851E-02  0.657432854    
  0.562500000      0.175000012      0.856027722       2.51024999E-02  0.856395662    
  0.562500000      0.224999994       1.01586485       3.53840962E-02   1.01648092    
  0.562500000      0.275000006       1.13882971       4.12684903E-02   1.13957715    
  0.562500000      0.324999988       1.22886109       4.11442518E-02   1.22954965    
  0.562500000      0.375000000       1.29072773       3.47540863E-02   1.29119551    
  0.562500000      0.425000012       1.32898974       2.30167843E-02   1.32918906    
  0.562500000      0.475000024       1.34716940       7.72403134E-03   1.34719145    
  0.562500000      0.524999976       1.34717083      -8.80719908E-03   1.34719968    
  0.562500000      0.575000048       1.32898998      -2.40854509E-02   1.32920825    
  0.562500000      0.625000000       1.29071927      -3.57938632E-02   1.29121542    
  0.562500000      0.675000012       1.22883677      -4.21425626E-02   1.22955918    
  0.562500000      0.725000024       1.13878167      -4.22153249E-02   1.13956392    
  0.562500000      0.774999976       1.01578939      -3.62730697E-02   1.01643682    
  0.562500000      0.825000048      0.855927289      -2.59314179E-02  0.856320024    
  0.562500000      0.875000000      0.657187104      -1.40911415E-02  0.657338142    
  0.562500000      0.925000012      0.420374393      -4.49000532E-03  0.420398384    
  0.562500000      0.975000024      0.149410278      -3.73929070E-04  0.149410740    
  0.562500000       1.00000000       0.00000000       0.00000000       0.00000000    
  0.687500000       0.00000000       0.00000000       0.00000000       0.00000000    
  0.687500000       2.50000004E-02  0.140275374      -1.12776423E-03  0.140279904    
  0.687500000       7.50000030E-02  0.396186411      -1.38355291E-03  0.396188825    
  0.687500000      0.125000000      0.624037385       1.83901214E-03  0.624040067    
  0.687500000      0.175000012      0.821122289       7.08141737E-03  0.821152806    
  0.687500000      0.224999994      0.986024380       1.24614630E-02  0.986103117    
  0.687500000      0.275000006       1.11881447       1.62847545E-02   1.11893296    
  0.687500000      0.324999988       1.22085524       1.73836276E-02   1.22097898    
  0.687500000      0.375000000       1.29432726       1.53028537E-02   1.29441774    
  0.687500000      0.425000012       1.34160900       1.03195142E-02   1.34164870    
  0.687500000      0.475000024       1.36468244       3.32657946E-03   1.36468649    
  0.687500000      0.524999976       1.36466503      -4.37790668E-03   1.36467206    
  0.687500000      0.575000048       1.34155345      -1.13558052E-02   1.34160149    
  0.687500000      0.625000000       1.29423058      -1.63104460E-02   1.29433334    
  0.687500000      0.675000012       1.22071600      -1.83509439E-02   1.22085392    
  0.687500000      0.725000024       1.11863256      -1.72031820E-02   1.11876488    
  0.687500000      0.774999976      0.985807776      -1.33261876E-02  0.985897839    
  0.687500000      0.825000048      0.820886552      -7.89195672E-03  0.820924461    
  0.687500000      0.875000000      0.623811841      -2.59918859E-03  0.623817265    
  0.687500000      0.925000012      0.396014065       6.75197924E-04  0.396014631    
  0.687500000      0.975000024      0.140211269       7.87632423E-04  0.140213490    
  0.687500000       1.00000000       0.00000000       0.00000000       0.00000000    
  0.812500000       0.00000000       0.00000000       0.00000000       0.00000000    
  0.812500000       2.50000004E-02  0.135298669      -1.64400018E-03  0.135308653    
  0.812500000       7.50000030E-02  0.382361084      -3.75884073E-03  0.382379562    
  0.812500000      0.125000000      0.603897095      -3.64639726E-03  0.603908122    
  0.812500000      0.175000012      0.798114300      -1.87100656E-03  0.798116505    
  0.812500000      0.224999994      0.963738561       6.29405258E-04  0.963738799    
  0.812500000      0.275000006       1.10021436       2.92543857E-03   1.10021830    
  0.812500000      0.324999988       1.20771742       4.28743148E-03   1.20772505    
  0.812500000      0.375000000       1.28698969       4.32454515E-03   1.28699696    
  0.812500000      0.425000012       1.33903241       3.04020522E-03   1.33903587    
  0.812500000      0.475000024       1.36476374       7.98067194E-04   1.36476398    
  0.812500000      0.524999976       1.36472821      -1.78840221E-03   1.36472940    
  0.812500000      0.575000048       1.33892441      -4.01743734E-03   1.33893037    
  0.812500000      0.625000000       1.28681111      -5.27684577E-03   1.28682196    
  0.812500000      0.675000012       1.20747340      -5.20515814E-03   1.20748460    
  0.812500000      0.725000024       1.09991384      -3.80202895E-03   1.09992039    
  0.812500000      0.774999976      0.963399529      -1.46180717E-03  0.963400662    
  0.812500000      0.825000048      0.797764182       1.08249835E-03  0.797764957    
  0.812500000      0.875000000      0.603576422       2.89899530E-03  0.603583395    
  0.812500000      0.925000012      0.382123530       3.05597973E-03  0.382135749    
  0.812500000      0.975000024      0.135209486       1.30504929E-03  0.135215774    
  0.812500000       1.00000000       0.00000000       0.00000000       0.00000000    
  0.937500000       0.00000000       0.00000000       0.00000000       0.00000000    
  0.937500000       2.50000004E-02  0.132181764      -1.87136512E-03  0.132195011    
  0.937500000       7.50000030E-02  0.373444557      -4.83397394E-03  0.373475820    
  0.937500000      0.125000000      0.590312779      -6.19685138E-03  0.590345323    
  0.937500000      0.175000012      0.781527102      -6.14488078E-03  0.781551242    
  0.937500000      0.224999994      0.946032405      -5.16489055E-03  0.946046531    
  0.937500000      0.275000006       1.08310831      -3.77083663E-03   1.08311486    
  0.937500000      0.324999988       1.19242835      -2.40877178E-03   1.19243085    
  0.937500000      0.375000000       1.27401853      -1.37558149E-03   1.27401924    
  0.937500000      0.425000012       1.32812810      -7.74657354E-04   1.32812834    
  0.937500000      0.475000024       1.35505795      -5.22047048E-04   1.35505807    
  0.937500000      0.524999976       1.35500741      -3.98438511E-04   1.35500741    
  0.937500000      0.575000048       1.32797742      -1.35754322E-04   1.32797742    
  0.937500000      0.625000000       1.27377343       4.84135700E-04   1.27377355    
  0.937500000      0.675000012       1.19209909       1.54371897E-03   1.19210005    
  0.937500000      0.725000024       1.08271241       2.93719512E-03   1.08271635    
  0.937500000      0.774999976      0.945596218       4.36530588E-03  0.945606291    
  0.937500000      0.825000048      0.781087399       5.37956087E-03  0.781105936    
  0.937500000      0.875000000      0.589918375       5.46355266E-03  0.589943707    
  0.937500000      0.925000012      0.373157144       4.13755327E-03  0.373180091    
  0.937500000      0.975000024      0.132073417       1.53396733E-03  0.132082313    
  0.937500000       1.00000000       0.00000000       0.00000000       0.00000000    
   1.06250000       0.00000000       0.00000000       0.00000000       0.00000000    
   1.06250000       2.50000004E-02  0.129873276      -1.96700986E-03  0.129888162    
   1.06250000       7.50000030E-02  0.366765797      -5.29983547E-03  0.366804093    
   1.06250000      0.125000000      0.579849124      -7.33074360E-03  0.579895437    
   1.06250000      0.175000012      0.768151641      -8.08852911E-03  0.768194258    
   1.06250000      0.224999994      0.930778563      -7.85400905E-03  0.930811703    
   1.06250000      0.275000006       1.06699133      -6.93499390E-03   1.06701386    
   1.06250000      0.324999988       1.17626834      -5.62076224E-03   1.17628169    
   1.06250000      0.375000000       1.25830817      -4.13996819E-03   1.25831497    
   1.06250000      0.425000012       1.31298804      -2.63481541E-03   1.31299067    
   1.06250000      0.475000024       1.34028983      -1.15828891E-03   1.34029031    
   1.06250000      0.524999976       1.34022820       3.03057604E-04   1.34022820    
   1.06250000      0.575000048       1.31280589       1.78668287E-03   1.31280708    
   1.06250000      0.625000000       1.25801349       3.30549525E-03   1.25801790    
   1.06250000      0.675000012       1.17587602       4.80541680E-03   1.17588592    
   1.06250000      0.725000024       1.06652522       6.14244724E-03   1.06654286    
   1.06250000      0.774999976      0.930271149       7.08578294E-03  0.930298150    
   1.06250000      0.825000048      0.767647028       7.34423706E-03  0.767682195    
   1.06250000      0.875000000      0.579402387       6.60943706E-03  0.579440117    
   1.06250000      0.925000012      0.366443634       4.60863858E-03  0.366472602    
   1.06250000      0.975000024      0.129751861       1.63083069E-03  0.129762113    
   1.06250000       1.00000000       0.00000000       0.00000000       0.00000000    
   1.18750000       0.00000000       0.00000000       0.00000000       0.00000000    
   1.18750000       2.50000004E-02  0.127896011      -2.00417545E-03  0.127911717    
   1.18750000       7.50000030E-02  0.361057252      -5.48799988E-03  0.361098945    
   1.18750000      0.125000000      0.570793748      -7.80288782E-03  0.570847094    
   1.18750000      0.175000012      0.756284833      -8.91814753E-03  0.756337404    
   1.18750000      0.224999994      0.916734755      -9.02579352E-03  0.916779160    
   1.18750000      0.275000006       1.05142736      -8.33703205E-03   1.05146039    
   1.18750000      0.324999988       1.15977407      -7.06258789E-03   1.15979552    
   1.18750000      0.375000000       1.24133778      -5.39170019E-03   1.24134946    
   1.18750000      0.425000012       1.29582775      -3.47866514E-03   1.29583240    
   1.18750000      0.475000024       1.32307506      -1.43952877E-03   1.32307577    
   1.18750000      0.524999976       1.32300615       6.39631297E-04   1.32300627    
   1.18750000      0.575000048       1.29562414       2.68356246E-03   1.29562688    
   1.18750000      0.625000000       1.24100840       4.60556475E-03   1.24101698    
   1.18750000      0.675000012       1.15933800       6.28911937E-03   1.15935504    
   1.18750000      0.725000024       1.05091262       7.57863466E-03   1.05093992    
   1.18750000      0.774999976      0.916179538       8.28318298E-03  0.916216969    
   1.18750000      0.825000048      0.755737603       8.19114503E-03  0.755782008    
   1.18750000      0.875000000      0.570313394       7.09120743E-03  0.570357442    
   1.18750000      0.925000012      0.360713422       4.80050826E-03  0.360745370    
   1.18750000      0.975000024      0.127766937       1.66870921E-03  0.127777830    
   1.18750000       1.00000000       0.00000000       0.00000000       0.00000000    
   1.31250000       0.00000000       0.00000000       0.00000000       0.00000000    
   1.31250000       2.50000004E-02  0.126041919      -2.01643817E-03  0.126058042    
   1.31250000       7.50000030E-02  0.355739236      -5.55491773E-03  0.355782598    
   1.31250000      0.125000000      0.562332749      -7.97985867E-03  0.562389374    
   1.31250000      0.175000012      0.745080471      -9.24060494E-03  0.745137811    
   1.31250000      0.224999994      0.903246522      -9.49376356E-03  0.903296411    
   1.31250000      0.275000006       1.03614140      -8.90866295E-03   1.03617966    
   1.31250000      0.324999988       1.14316249      -7.65903108E-03   1.14318812    
   1.31250000      0.375000000       1.22382331      -5.91381639E-03   1.22383761    
   1.31250000      0.425000012       1.27776468      -3.83009436E-03   1.27777040    
   1.31250000      0.475000024       1.30475450      -1.55047013E-03   1.30475545    
   1.31250000      0.524999976       1.30468130       7.94149004E-04   1.30468154    
   1.31250000      0.575000048       1.27754736       3.07676289E-03   1.27755105    
   1.31250000      0.625000000       1.22347200       5.16591873E-03   1.22348297    
   1.31250000      0.675000012       1.14269924       6.91846572E-03   1.14272022    
   1.31250000      0.725000024       1.03559721       8.17663316E-03   1.03562951    
   1.31250000      0.774999976      0.902663112       8.77072103E-03  0.902705729    
   1.31250000      0.825000048      0.744508862       8.52669775E-03  0.744557679    
   1.31250000      0.875000000      0.561833799       7.27581279E-03  0.561880887    
   1.31250000      0.925000012      0.355383813       4.87072766E-03  0.355417192    
   1.31250000      0.975000024      0.125908703       1.68165017E-03  0.125919923    
   1.31250000       1.00000000       0.00000000       0.00000000       0.00000000    
   1.43750000       0.00000000       0.00000000       0.00000000       0.00000000    
   1.43750000       2.50000004E-02  0.124225378      -2.01918115E-03  0.124241784    
   1.43750000       7.50000030E-02  0.350559771      -5.57336956E-03  0.350604087    
   1.43750000      0.125000000      0.554098725      -8.03459063E-03  0.554156959    
   1.43750000      0.175000012      0.734143019      -9.34781134E-03  0.734202564    
   1.43750000      0.224999994      0.889993906      -9.65710543E-03  0.890046299    
   1.43750000      0.275000006       1.02098405      -9.11474228E-03   1.02102470    
   1.43750000      0.324999988       1.12651610      -7.87837990E-03   1.12654364    
   1.43750000      0.375000000       1.20609140      -6.10735361E-03   1.20610690    
   1.43750000      0.425000012       1.25932860      -3.95882316E-03   1.25933480    
   1.43750000      0.475000024       1.28597188      -1.58593932E-03   1.28597283    
   1.43750000      0.524999976       1.28589606       8.61783803E-04   1.28589630    
   1.43750000      0.575000048       1.25910354       3.23615503E-03   1.25910771    
   1.43750000      0.625000000       1.20572829       5.38739236E-03   1.20574033    
   1.43750000      0.675000012       1.12603867       7.16177328E-03   1.12606144    
   1.43750000      0.725000024       1.02042544       8.40170961E-03   1.02046001    
   1.43750000      0.774999976      0.889397383       8.94792471E-03  0.889442384    
   1.43750000      0.825000048      0.733560741       8.64297710E-03  0.733611643    
   1.43750000      0.875000000      0.553592145       7.33548636E-03  0.553640723    
   1.43750000      0.925000012      0.350199997       4.89122141E-03  0.350234151    
   1.43750000      0.975000024      0.124090716       1.68488128E-03  0.124102153    
   1.43750000       1.00000000       0.00000000       0.00000000       0.00000000    
   1.56250000       0.00000000       0.00000000       0.00000000       0.00000000    
   1.56250000       2.50000004E-02  0.122413635      -2.01887940E-03  0.122430280    
   1.56250000       7.50000030E-02  0.345417023      -5.57503290E-03  0.345462024    
   1.56250000      0.125000000      0.545937181      -8.04436393E-03  0.545996428    
   1.56250000      0.175000012      0.723300278      -9.37212817E-03  0.723361015    
   1.56250000      0.224999994      0.876831472      -9.69914347E-03  0.876885116    
   1.56250000      0.275000006       1.00588179      -9.17219650E-03   1.00592363    
   1.56250000      0.324999988       1.10986423      -7.94267654E-03   1.10989261    
   1.56250000      0.375000000       1.18828344      -6.16506487E-03   1.18829942    
   1.56250000      0.425000012       1.24075460      -3.99588002E-03   1.24076104    
   1.56250000      0.475000024       1.26701617      -1.59204530E-03   1.26701713    
   1.56250000      0.524999976       1.26693928       8.90112366E-04   1.26693964    
   1.56250000      0.575000048       1.24052620       3.29433754E-03   1.24053061    
   1.56250000      0.625000000       1.18791604       5.46379667E-03   1.18792856    
   1.56250000      0.675000012       1.10938215       7.24183116E-03   1.10940576    
   1.56250000      0.725000024       1.00531900       8.47195834E-03   1.00535464    
   1.56250000      0.774999976      0.876231790       8.99944268E-03  0.876277983    
   1.56250000      0.825000048      0.722716570       8.67330842E-03  0.722768605    
   1.56250000      0.875000000      0.545430779       7.34823709E-03  0.545480311    
   1.56250000      0.925000012      0.345058560       4.89380583E-03  0.345093250    
   1.56250000      0.975000024      0.122280046       1.68465893E-03  0.122291647    
   1.56250000       1.00000000       0.00000000       0.00000000       0.00000000    
   1.68750000       0.00000000       0.00000000       0.00000000       0.00000000    
   1.68750000       2.50000004E-02  0.120597929      -2.01781699E-03  0.120614812    
   1.68750000       7.50000030E-02  0.340276062      -5.57157304E-03  0.340321660    
   1.68750000      0.125000000      0.537789524      -8.03948287E-03  0.537849605    
   1.68750000      0.175000012      0.712482572      -9.36856680E-03  0.712544203    
   1.68750000      0.224999994      0.863697350      -9.69933532E-03  0.863751769    
   1.68750000      0.275000006      0.990800142      -9.17670317E-03  0.990842640    
   1.68750000      0.324999988       1.09321570      -7.95006100E-03   1.09324455    
   1.68750000      0.375000000       1.17045546      -6.17250800E-03   1.17047179    
   1.68750000      0.425000012       1.22213924      -3.99961323E-03   1.22214580    
   1.68750000      0.475000024       1.24800706      -1.58890348E-03   1.24800801    
   1.68750000      0.524999976       1.24793053       9.00920597E-04   1.24793088    
   1.68750000      0.575000048       1.22191143       3.31101986E-03   1.22191596    
   1.68750000      0.625000000       1.17008924       5.48307318E-03   1.17010212    
   1.68750000      0.675000012       1.09273517       7.25946762E-03   1.09275925    
   1.68750000      0.725000024      0.990240037       8.48447997E-03  0.990276396    
   1.68750000      0.774999976      0.863101482       9.00542364E-03  0.863148451    
   1.68750000      0.825000048      0.711903572       8.67365673E-03  0.711956382    
   1.68750000      0.875000000      0.537288547       7.34568154E-03  0.537338734    
   1.68750000      0.925000012      0.339922190       4.89138253E-03  0.339957386    
   1.68750000      0.975000024      0.120466515       1.68386544E-03  0.120478280    
   1.68750000       1.00000000       0.00000000       0.00000000       0.00000000    
   1.81250000       0.00000000       0.00000000       0.00000000       0.00000000    
   1.81250000       2.50000004E-02  0.118777469      -2.01694551E-03  0.118794590    
   1.81250000       7.50000030E-02  0.335127711      -5.56813087E-03  0.335173965    
   1.81250000      0.125000000      0.529637337      -8.03281926E-03  0.529698253    
   1.81250000      0.175000012      0.701665223      -9.35947523E-03  0.701727629    
   1.81250000      0.224999994      0.850567818      -9.68919974E-03  0.850623012    
   1.81250000      0.275000006      0.975724518      -9.16692708E-03  0.975767612    
   1.81250000      0.324999988       1.07657099      -7.94141181E-03   1.07660031    
   1.81250000      0.375000000       1.15262699      -6.16528187E-03   1.15264356    
   1.81250000      0.425000012       1.20351839      -3.99385812E-03   1.20352507    
   1.81250000      0.475000024       1.22898984      -1.58442277E-03   1.22899091    
   1.81250000      0.524999976       1.22891378       9.04213637E-04   1.22891414    
   1.81250000      0.575000048       1.20329309       3.31290253E-03   1.20329762    
   1.81250000      0.625000000       1.15226483       5.48283150E-03   1.15227783    
   1.81250000      0.675000012       1.07609630       7.25652417E-03   1.07612073    
   1.81250000      0.725000024      0.975171685       8.47900193E-03  0.975208521    
   1.81250000      0.774999976      0.849980235       8.99833627E-03  0.850027859    