 TITLE= "TESTPLOT" 
 VARIABLES="x","y","fx","fy","magf" 
 ZONE T="1", I=          81 , J=          21
   0.00000000       0.00000000       1.00000000       0.00000000       1.00000000    
   0.00000000       2.50000004E-02   1.00000000       0.00000000       1.00000000    
   0.00000000       7.50000030E-02   1.00000000       0.00000000       1.00000000    
   0.00000000      0.125000000       1.00000000       0.00000000       1.00000000    
   0.00000000      0.175000012       1.00000000       0.00000000       1.00000000    
   0.00000000      0.224999994       1.00000000       0.00000000       1.00000000    
   0.00000000      0.275000006       1.00000000       0.00000000       1.00000000    
   0.00000000      0.324999988       1.00000000       0.00000000       1.00000000    
   0.00000000      0.375000000       1.00000000       0.00000000       1.00000000    
   0.00000000      0.425000012       1.00000000       0.00000000       1.00000000    
   0.00000000      0.475000024       1.00000000       0.00000000       1.00000000    
   0.00000000      0.524999976       1.00000000       0.00000000       1.00000000    
   0.00000000      0.575000048       1.00000000       0.00000000       1.00000000    
   0.00000000      0.625000000       1.00000000       0.00000000       1.00000000    
   0.00000000      0.675000012       1.00000000       0.00000000       1.00000000    
   0.00000000      0.725000024       1.00000000       0.00000000       1.00000000    
   0.00000000      0.774999976       1.00000000       0.00000000       1.00000000    
   0.00000000      0.825000048       1.00000000       0.00000000       1.00000000    
   0.00000000      0.875000000       1.00000000       0.00000000       1.00000000    
   0.00000000      0.925000012       1.00000000       0.00000000       1.00000000    
   0.00000000      0.975000024       1.00000000       0.00000000       1.00000000    
   0.00000000       1.00000000       1.00000000       0.00000000       1.00000000    
   6.25000000E-02   0.00000000      0.500000000       0.00000000      0.500000000    
   6.25000000E-02   2.50000004E-02  0.716113269      0.111027561      0.724669158    
   6.25000000E-02   7.50000030E-02  0.919505358      0.251535356      0.953289092    
   6.25000000E-02  0.125000000       1.01024449      0.274204463       1.04679608    
   6.25000000E-02  0.175000012       1.04514217      0.246625185       1.07384646    
   6.25000000E-02  0.224999994       1.05334973      0.201806575       1.07250714    
   6.25000000E-02  0.275000006       1.05005980      0.155021846       1.06144118    
   6.25000000E-02  0.324999988       1.04305172      0.112356633       1.04908574    
   6.25000000E-02  0.375000000       1.03611875       7.52679706E-02   1.03884900    
   6.25000000E-02  0.425000012       1.03096890       4.30124179E-02   1.03186572    
   6.25000000E-02  0.475000024       1.02828574       1.38899917E-02   1.02837956    
   6.25000000E-02  0.524999976       1.02829146      -1.41613763E-02   1.02838898    
   6.25000000E-02  0.575000048       1.03098702      -4.32930738E-02   1.03189564    
   6.25000000E-02  0.625000000       1.03614998      -7.55680203E-02   1.03890193    
   6.25000000E-02  0.675000012       1.04309726     -0.112686947       1.04916644    
   6.25000000E-02  0.725000024       1.05012107     -0.155394301       1.06155622    
   6.25000000E-02  0.774999976       1.05342770     -0.202233732       1.07266414    
   6.25000000E-02  0.825000048       1.04523516     -0.247118890       1.07405043    
   6.25000000E-02  0.875000000       1.01034617     -0.274771869       1.04704297    
   6.25000000E-02  0.925000012      0.919603467     -0.252165347      0.953550160    
   6.25000000E-02  0.975000024      0.716184139     -0.111355014      0.724789381    
   6.25000000E-02   1.00000000      0.500000000       0.00000000      0.500000000    
  0.187500000       0.00000000       0.00000000       0.00000000       0.00000000    
  0.187500000       2.50000004E-02  0.337813228       3.52169909E-02  0.339643955    
  0.187500000       7.50000030E-02  0.728347301      0.111954734      0.736901402    
  0.187500000      0.125000000      0.946414053      0.180364251      0.963447392    
  0.187500000      0.175000012       1.05985737      0.216684133       1.08178079    
  0.187500000      0.224999994       1.11169994      0.221375942       1.13352728    
  0.187500000      0.275000006       1.12935615      0.202203289       1.14731491    
  0.187500000      0.324999988       1.12997758      0.167481884       1.14232206    
  0.187500000      0.375000000       1.12396038      0.123766236       1.13075411    
  0.187500000      0.425000012       1.11733413       7.54415989E-02   1.11987805    
  0.187500000      0.475000024       1.11333251       2.51017287E-02   1.11361539    
  0.187500000      0.524999976       1.11335027      -2.57865414E-02   1.11364889    
  0.187500000      0.575000048       1.11738849      -7.61360750E-02   1.11997926    
  0.187500000      0.625000000       1.12405038     -0.124478683       1.13092184    
  0.187500000      0.675000012       1.13010144     -0.168218240       1.14255273    
  0.187500000      0.725000024       1.12951195     -0.202965409       1.14760280    
  0.187500000      0.774999976       1.11188161     -0.222160280       1.13385880    
  0.187500000      0.825000048       1.06005478     -0.217481121       1.08213413    
  0.187500000      0.875000000      0.946609974     -0.181158647      0.963788807    
  0.187500000      0.925000012      0.728517771     -0.112718984      0.737186313    
  0.187500000      0.975000024      0.337924302      -3.55869457E-02  0.339792967    
  0.187500000       1.00000000       0.00000000       0.00000000       0.00000000    
  0.312500000       0.00000000       0.00000000       0.00000000       0.00000000    
  0.312500000       2.50000004E-02  0.211525396       1.02019152E-02  0.211771280    
  0.312500000       7.50000030E-02  0.556105494       4.22911309E-02  0.557711244    
  0.312500000      0.125000000      0.810815334       8.60474408E-02  0.815368414    
  0.312500000      0.175000012      0.985073328      0.122920454      0.992712915    
  0.312500000      0.224999994       1.09583879      0.143531084       1.10519850    
  0.312500000      0.275000006       1.16077542      0.145527065       1.16986227    
  0.312500000      0.324999988       1.19523358      0.130625993       1.20235038    
  0.312500000      0.375000000       1.21123028      0.102379337       1.21554935    
  0.312500000      0.425000012       1.21737564       6.48276061E-02   1.21910048    
  0.312500000      0.475000024       1.21913981       2.18764599E-02   1.21933615    
  0.312500000      0.524999976       1.21916366      -2.28350908E-02   1.21937752    
  0.312500000      0.575000048       1.21744609      -6.57856315E-02   1.21922219    
  0.312500000      0.625000000       1.21134186     -0.103334032       1.21574128    
  0.312500000      0.675000012       1.19537783     -0.131572813       1.20259702    
  0.312500000      0.725000024       1.16094112     -0.146459013       1.17014301    
  0.312500000      0.774999976       1.09601057     -0.144438639       1.10548711    
  0.312500000      0.825000048      0.985235155     -0.123792805      0.992981851    
  0.312500000      0.875000000      0.810951114      -8.68751556E-02  0.815591216    
  0.312500000      0.925000012      0.556202888      -4.30610329E-02  0.557867289    
  0.312500000      0.975000024      0.211580068      -1.05701219E-02  0.211843938    
  0.312500000       1.00000000       0.00000000       0.00000000       0.00000000    
  0.437500000       0.00000000       0.00000000       0.00000000       0.00000000    
  0.437500000       2.50000004E-02  0.166549340       2.69434974E-03  0.166571125    
  0.437500000       7.50000030E-02  0.463593483       1.50198946E-02  0.463836730    
  0.437500000      0.125000000      0.712054312       3.68070751E-02  0.713005006    
  0.437500000      0.175000012      0.907435000       5.95381558E-02  0.909386098    
  0.437500000      0.224999994       1.05248928       7.63715506E-02   1.05525661    
  0.437500000      0.275000006       1.15437901       8.33250433E-02   1.15738237    
  0.437500000      0.324999988       1.22199047       7.91340470E-02   1.22455013    
  0.437500000      0.375000000       1.26400936       6.46187365E-02   1.26566005    
  0.437500000      0.425000012       1.28770804       4.19787839E-02   1.28839219    
  0.437500000      0.475000024       1.29823947       1.42105678E-02   1.29831731    
  0.437500000      0.524999976       1.29825699      -1.53016029E-02   1.29834712    
  0.437500000      0.575000048       1.28775835      -4.30599712E-02   1.28847814    
  0.437500000      0.625000000       1.26408315      -6.56796843E-02   1.26578832    
  0.437500000      0.675000012       1.22207737      -8.01639333E-02   1.22470379    
  0.437500000      0.725000024       1.15446532      -8.43138993E-02   1.15754008    
  0.437500000      0.774999976       1.05256057      -7.73105770E-02   1.05539596    
  0.437500000      0.825000048      0.907481372      -6.04215488E-02  0.909490645    
  0.437500000      0.875000000      0.712073922      -3.76333520E-02  0.713067710    
  0.437500000      0.925000012      0.463595629      -1.57845616E-02  0.463864267    
  0.437500000      0.975000024      0.166557238      -3.06006079E-03  0.166585341    
  0.437500000       1.00000000       0.00000000       0.00000000       0.00000000    
  0.562500000       0.00000000       0.00000000       0.00000000       0.00000000    
  0.562500000       2.50000004E-02  0.147242323      -6.24478344E-05  0.147242337    
  0.562500000       7.50000030E-02  0.416730314       3.50635406E-03  0.416745067    
  0.562500000      0.125000000      0.653655529       1.28651243E-02  0.653782129    
  0.562500000      0.175000012      0.852727532       2.44276263E-02  0.853077352    
  0.562500000      0.224999994       1.01256967       3.45006660E-02   1.01315725    
  0.562500000      0.275000006       1.13516891       4.02566865E-02   1.13588250    
  0.562500000      0.324999988       1.22463143       4.01338488E-02   1.22528887    
  0.562500000      0.375000000       1.28590894       3.38919014E-02   1.28635550    
  0.562500000      0.425000012       1.32370210       2.24336609E-02   1.32389224    
  0.562500000      0.475000024       1.34162629       7.50900945E-03   1.34164727    
  0.562500000      0.524999976       1.34162879      -8.62250570E-03   1.34165645    
  0.562500000      0.575000048       1.32370782      -2.35330947E-02   1.32391703    
  0.562500000      0.625000000       1.28590918      -3.49642448E-02   1.28638446    
  0.562500000      0.675000012       1.22461843      -4.11673039E-02   1.22531021    
  0.562500000      0.725000024       1.13513303      -4.12412211E-02   1.13588202    
  0.562500000      0.774999976       1.01250565      -3.54299247E-02   1.01312530    
  0.562500000      0.825000048      0.852637053      -2.52997428E-02  0.853012323    
  0.562500000      0.875000000      0.653552532      -1.36822537E-02  0.653695762    
  0.562500000      0.925000012      0.416642338      -4.26576380E-03  0.416664183    
  0.562500000      0.975000024      0.147211924      -3.01628548E-04  0.147212237    
  0.562500000       1.00000000       0.00000000       0.00000000       0.00000000    
  0.687500000       0.00000000       0.00000000       0.00000000       0.00000000    
  0.687500000       2.50000004E-02  0.137762278      -1.23303197E-03  0.137767792    
  0.687500000       7.50000030E-02  0.392037958      -1.69950270E-03  0.392041653    
  0.687500000      0.125000000      0.620119989       1.28147961E-03  0.620121300    
  0.687500000      0.175000012      0.817604244       6.24116091E-03  0.817628086    
  0.687500000      0.224999994      0.982369184       1.13610839E-02  0.982434869    
  0.687500000      0.275000006       1.11447549       1.50280148E-02   1.11457682    
  0.687500000      0.324999988       1.21553683       1.61319859E-02   1.21564388    
  0.687500000      0.375000000       1.28801107       1.42373145E-02   1.28808975    
  0.687500000      0.425000012       1.33450079       9.60212480E-03   1.33453536    
  0.687500000      0.475000024       1.35714173       3.06828762E-03   1.35714519    
  0.687500000      0.524999976       1.35712719      -4.13824292E-03   1.35713351    
  0.687500000      0.575000048       1.33445525      -1.06583741E-02   1.33449781    
  0.687500000      0.625000000       1.28793049      -1.52671300E-02   1.28802097    
  0.687500000      0.675000012       1.21541739      -1.71245728E-02   1.21553802    
  0.687500000      0.725000024       1.11431527      -1.59758795E-02   1.11442983    
  0.687500000      0.774999976      0.982173681      -1.22601017E-02  0.982250214    
  0.687500000      0.825000048      0.817387342      -7.09052105E-03  0.817418098    
  0.687500000      0.875000000      0.619908750      -2.08388502E-03  0.619912267    
  0.687500000      0.925000012      0.391873717       9.47139168E-04  0.391874850    
  0.687500000      0.975000024      0.137700602       8.70669086E-04  0.137703359    
  0.687500000       1.00000000       0.00000000       0.00000000       0.00000000    
  0.812500000       0.00000000       0.00000000       0.00000000       0.00000000    
  0.812500000       2.50000004E-02  0.132509947      -1.74933358E-03  0.132521495    
  0.812500000       7.50000030E-02  0.377882451      -4.07750206E-03  0.377904445    
  0.812500000      0.125000000      0.599804759      -4.21244744E-03  0.599819541    
  0.812500000      0.175000012      0.794475198      -2.72680772E-03  0.794479907    
  0.812500000      0.224999994      0.959796906      -4.93610743E-04  0.959797025    
  0.812500000      0.275000006       1.09523106       1.64092134E-03   1.09523237    
  0.812500000      0.324999988       1.20129490       3.00686713E-03   1.20129859    
  0.812500000      0.375000000       1.27911007       3.23446956E-03   1.27911413    
  0.812500000      0.425000012       1.32999599       2.30819033E-03   1.32999802    
  0.812500000      0.475000024       1.35509503       5.39198052E-04   1.35509515    
  0.812500000      0.524999976       1.35506487      -1.53391645E-03   1.35506570    
  0.812500000      0.575000048       1.32990479      -3.29178432E-03   1.32990885    
  0.812500000      0.625000000       1.27895796      -4.19696514E-03   1.27896488    
  0.812500000      0.675000012       1.20108318      -3.94000579E-03   1.20108962    
  0.812500000      0.725000024       1.09496617      -2.53895903E-03   1.09496915    
  0.812500000      0.774999976      0.959493041      -3.66735447E-04  0.959493101    
  0.812500000      0.825000048      0.794156432       1.90436398E-03  0.794158697    
  0.812500000      0.875000000      0.599508286       3.42619885E-03  0.599518061    
  0.812500000      0.925000012      0.377659440       3.33277415E-03  0.377674133    
  0.812500000      0.975000024      0.132424653       1.38901104E-03  0.132431939    
  0.812500000       1.00000000       0.00000000       0.00000000       0.00000000    
  0.937500000       0.00000000       0.00000000       0.00000000       0.00000000    
  0.937500000       2.50000004E-02  0.129107252      -1.96775212E-03  0.129122242    
  0.937500000       7.50000030E-02  0.368607938      -5.11592068E-03  0.368643433    
  0.937500000      0.125000000      0.586007833      -6.68369886E-03  0.586045980    
  0.937500000      0.175000012      0.777734458      -6.87565515E-03  0.777764857    
  0.937500000      0.224999994      0.941788971      -6.12595771E-03  0.941808879    
  0.937500000      0.275000006       1.07748985      -4.87517565E-03   1.07750082    
  0.937500000      0.324999988       1.18493533      -3.51425004E-03   1.18494058    
  0.937500000      0.375000000       1.26463020      -2.31892033E-03   1.26463234    
  0.937500000      0.425000012       1.31723249      -1.40801794E-03   1.31723332    
  0.937500000      0.475000024       1.34333706      -7.43306358E-04   1.34333730    
  0.937500000      0.524999976       1.34329486      -1.71765641E-04   1.34329486    
  0.937500000      0.575000048       1.31710625       5.00933500E-04   1.31710637    
  0.937500000      0.625000000       1.26442349       1.42660667E-03   1.26442432    
  0.937500000      0.675000012       1.18465447       2.64211185E-03   1.18465745    
  0.937500000      0.725000024       1.07714796       4.02717385E-03   1.07715547    
  0.937500000      0.774999976      0.941406429       5.30399010E-03  0.941421390    
  0.937500000      0.825000048      0.777343035       6.07983861E-03  0.777366817    
  0.937500000      0.875000000      0.585651875       5.91332279E-03  0.585681736    
  0.937500000      0.925000012      0.368344426       4.37852740E-03  0.368370473    
  0.937500000      0.975000024      0.129006267       1.60932413E-03  0.129016295    
  0.937500000       1.00000000       0.00000000       0.00000000       0.00000000    
   1.06250000       0.00000000       0.00000000       0.00000000       0.00000000    
   1.06250000       2.50000004E-02  0.126468360      -2.04932294E-03  0.126484975    
   1.06250000       7.50000030E-02  0.361461997      -5.52320760E-03  0.361504197    
   1.06250000      0.125000000      0.575190783      -7.69014191E-03  0.575242162    
   1.06250000      0.175000012      0.764072955      -8.61665513E-03  0.764121532    
   1.06250000      0.224999994      0.926147223      -8.55004601E-03  0.926186681    
   1.06250000      0.275000006       1.06072438      -7.74043612E-03   1.06075263    
   1.06250000      0.324999988       1.16777420      -6.43208018E-03   1.16779196    
   1.06250000      0.375000000       1.24755847      -4.83525451E-03   1.24756789    
   1.06250000      0.425000012       1.30044127      -3.10207484E-03   1.30044496    
   1.06250000      0.475000024       1.32675767      -1.31981156E-03   1.32675827    
   1.06250000      0.524999976       1.32670712       4.74352099E-04   1.32670724    
   1.06250000      0.575000048       1.30029225       2.26139626E-03   1.30029416    
   1.06250000      0.625000000       1.24731612       4.00343491E-03   1.24732256    
   1.06250000      0.675000012       1.16744852       5.61246974E-03   1.16746199    
   1.06250000      0.725000024       1.06033278       6.93520205E-03   1.06035542    
   1.06250000      0.774999976      0.925715089       7.76036736E-03  0.925747633    
   1.06250000      0.825000048      0.763636589       7.84305111E-03  0.763676882    
   1.06250000      0.875000000      0.574798584       6.93287654E-03  0.574840367    
   1.06250000      0.925000012      0.361174434       4.79191635E-03  0.361206234    
   1.06250000      0.975000024      0.126358554       1.69254607E-03  0.126369894    
   1.06250000       1.00000000       0.00000000       0.00000000       0.00000000    
   1.18750000       0.00000000       0.00000000       0.00000000       0.00000000    
   1.18750000       2.50000004E-02  0.124104321      -2.07188050E-03  0.124121614    
   1.18750000       7.50000030E-02  0.355148435      -5.65063534E-03  0.355193406    
   1.18750000      0.125000000      0.565602303      -8.02998058E-03  0.565659285    
   1.18750000      0.175000012      0.751746893      -9.23489593E-03  0.751803637    
   1.18750000      0.224999994      0.911597610      -9.44342464E-03  0.911646545    
   1.18750000      0.275000006       1.04448414      -8.82679038E-03   1.04452145    
   1.18750000      0.324999988       1.15036011      -7.56210834E-03   1.15038502    
   1.18750000      0.375000000       1.22941375      -5.82366530E-03   1.22942758    
   1.18750000      0.425000012       1.28189969      -3.77052510E-03   1.28190517    
   1.18750000      0.475000024       1.30804765      -1.54038274E-03   1.30804861    
   1.18750000      0.524999976       1.30799270       7.47016689E-04   1.30799294    
   1.18750000      0.575000048       1.28173816       2.97920033E-03   1.28174162    
   1.18750000      0.625000000       1.22915125       5.03684022E-03   1.22916162    
   1.18750000      0.675000012       1.15000951       6.78171031E-03   1.15002954    
   1.18750000      0.725000024       1.04406524       8.05386249E-03   1.04409635    
   1.18750000      0.774999976      0.911138952       8.67843814E-03  0.911180317    
   1.18750000      0.825000048      0.751287460       8.47812276E-03  0.751335323    
   1.18750000      0.875000000      0.565192223       7.28246383E-03  0.565239131    
   1.18750000      0.925000012      0.354849696       4.92361607E-03  0.354883879    
   1.18750000      0.975000024      0.123990774       1.71609654E-03  0.124002650    
   1.18750000       1.00000000       0.00000000       0.00000000       0.00000000    
   1.31250000       0.00000000       0.00000000       0.00000000       0.00000000    
   1.31250000       2.50000004E-02  0.121813349      -2.07192311E-03  0.121830970    
   1.31250000       7.50000030E-02  0.349101871      -5.66795841E-03  0.349147886    
   1.31250000      0.125000000      0.556444645      -8.09942093E-03  0.556503594    
   1.31250000      0.175000012      0.739923596      -9.38500371E-03  0.739983082    
   1.31250000      0.224999994      0.897492290      -9.68315080E-03  0.897544503    
   1.31250000      0.275000006       1.02849495      -9.13769193E-03   1.02853549    
   1.31250000      0.324999988       1.13290477      -7.89956003E-03   1.13293231    
   1.31250000      0.375000000       1.21090329      -6.12628739E-03   1.21091878    
   1.31250000      0.425000012       1.26271629      -3.97609081E-03   1.26272249    
   1.31250000      0.475000024       1.28853786      -1.60301942E-03   1.28853893    
   1.31250000      0.524999976       1.28848135       8.43905669E-04   1.28848159    
   1.31250000      0.575000048       1.26254892       3.21795559E-03   1.26255298    
   1.31250000      0.625000000       1.21063232       5.36988443E-03   1.21064425    
   1.31250000      0.675000012       1.13254356       7.14540947E-03   1.13256609    
   1.31250000      0.725000024       1.02806520       8.38616677E-03   1.02809942    
   1.31250000      0.774999976      0.897023678       8.93420540E-03  0.897068202    
   1.31250000      0.825000048      0.739456475       8.63936357E-03  0.739506960    
   1.31250000      0.875000000      0.556029260       7.35893706E-03  0.556077957    
   1.31250000      0.925000012      0.348800480       4.94476873E-03  0.348835528    
   1.31250000      0.975000024      0.121699125       1.71739771E-03  0.121711239    
   1.31250000       1.00000000       0.00000000       0.00000000       0.00000000    
   1.43750000       0.00000000       0.00000000       0.00000000       0.00000000    
   1.43750000       2.50000004E-02  0.119525470      -2.06580688E-03  0.119543321    
   1.43750000       7.50000030E-02  0.343107343      -5.65170217E-03  0.343153894    
   1.43750000      0.125000000      0.547396541      -8.08024779E-03  0.547456205    
   1.43750000      0.175000012      0.728250384      -9.37352329E-03  0.728310704    
   1.43750000      0.224999994      0.883540511      -9.68850963E-03  0.883593619    
   1.43750000      0.275000006       1.01261687      -9.16273519E-03   1.01265824    
   1.43750000      0.324999988       1.11547780      -7.93864578E-03   1.11550605    
   1.43750000      0.375000000       1.19231999      -6.16735406E-03   1.19233596    
   1.43750000      0.425000012       1.24336934      -4.00453666E-03   1.24337578    
   1.43750000      0.475000024       1.26881170      -1.60718802E-03   1.26881278    
   1.43750000      0.524999976       1.26875472       8.68146657E-04   1.26875508    
   1.43750000      0.575000048       1.24320030       3.26563837E-03   1.24320459    
   1.43750000      0.625000000       1.19204783       5.42868162E-03   1.19206023    
   1.43750000      0.675000012       1.11511540       7.19994260E-03   1.11513865    
   1.43750000      0.725000024       1.01218653       8.42375681E-03   1.01222157    
   1.43750000      0.774999976      0.883072615       8.94931890E-03  0.883117974    
   1.43750000      0.825000048      0.727784991       8.63487646E-03  0.727836251    
   1.43750000      0.875000000      0.546983540       7.34414719E-03  0.547032833    
   1.43750000      0.925000012      0.342808306       4.93089063E-03  0.342843771    
   1.43750000      0.975000024      0.119412273       1.71206135E-03  0.119424544    
   1.43750000       1.00000000       0.00000000       0.00000000       0.00000000    
   1.56250000       0.00000000       0.00000000       0.00000000       0.00000000    
   1.56250000       2.50000004E-02  0.117225043      -2.05941661E-03  0.117243133    
   1.56250000       7.50000030E-02  0.337104112      -5.63140493E-03  0.337151140    
   1.56250000      0.125000000      0.538354874      -8.04574788E-03  0.538415015    
   1.56250000      0.175000012      0.716603935      -9.32793692E-03  0.716664672    
   1.56250000      0.224999994      0.869632363      -9.63732321E-03  0.869685769    
   1.56250000      0.275000006      0.996788621      -9.11250524E-03  0.996830285    
   1.56250000      0.324999988       1.09809434      -7.89497048E-03   1.09812272    
   1.56250000      0.375000000       1.17376482      -6.13349210E-03   1.17378080    
   1.56250000      0.425000012       1.22403264      -3.98173975E-03   1.22403908    
   1.56250000      0.475000024       1.24908531      -1.59564323E-03   1.24908638    
   1.56250000      0.524999976       1.24902868       8.68302246E-04   1.24902892    
   1.56250000      0.575000048       1.22386503       3.25359497E-03   1.22386932    
   1.56250000      0.625000000       1.17349482       5.40413614E-03   1.17350721    
   1.56250000      0.675000012       1.09773576       7.16427062E-03   1.09775913    
   1.56250000      0.725000024      0.996363282       8.38008337E-03  0.996398509    
   1.56250000      0.774999976      0.869170427       8.90300330E-03  0.869216025    
   1.56250000      0.825000048      0.716145158       8.59249011E-03  0.716196716    
   1.56250000      0.875000000      0.537948489       7.31159747E-03  0.537998199    
   1.56250000      0.925000012      0.336810589       4.91205323E-03  0.336846411    
   1.56250000      0.975000024      0.117114604       1.70638214E-03  0.117127031    
   1.56250000       1.00000000       0.00000000       0.00000000       0.00000000    
   1.68750000       0.00000000       0.00000000       0.00000000       0.00000000    
   1.68750000       2.50000004E-02  0.114917010      -2.05422519E-03  0.114935368    
   1.68750000       7.50000030E-02  0.331090063      -5.61499409E-03  0.331137687    
   1.68750000      0.125000000      0.529303849      -8.01732950E-03  0.529364586    
   1.68750000      0.175000012      0.704956532      -9.28842183E-03  0.705017745    
   1.68750000      0.224999994      0.855736852      -9.58968140E-03  0.855790615    
   1.68750000      0.275000006      0.980988145      -9.06181894E-03  0.981029987    
   1.68750000      0.324999988       1.08075166      -7.84697104E-03   1.08078015    
   1.68750000      0.375000000       1.15525937      -6.09373674E-03   1.15527534    
   1.68750000      0.425000012       1.20475101      -3.95496981E-03   1.20475745    
   1.68750000      0.475000024       1.22941589      -1.58475502E-03   1.22941685    
   1.68750000      0.524999976       1.22936010       8.62266985E-04   1.22936046    
   1.68750000      0.575000048       1.20458591       3.23173264E-03   1.20459020    
   1.68750000      0.625000000       1.15499306       5.36921900E-03   1.15500557    
   1.68750000      0.675000012       1.08039856       7.12033268E-03   1.08042204    
   1.68750000      0.725000024      0.980569482       8.33261758E-03  0.980604887    
   1.68750000      0.774999976      0.855282426       8.85816850E-03  0.855328262    
   1.68750000      0.825000048      0.704505563       8.55552033E-03  0.704557478    
   1.68750000      0.875000000      0.528905034       7.28541054E-03  0.528955221    
   1.68750000      0.925000012      0.330802262       4.89731738E-03  0.330838501    
   1.68750000      0.975000024      0.114809141       1.70184730E-03  0.114821754    
   1.68750000       1.00000000       0.00000000       0.00000000       0.00000000    
   1.81250000       0.00000000       0.00000000       0.00000000       0.00000000    
   1.81250000       2.50000004E-02  0.112608373      -2.05037720E-03  0.112627037    
   1.81250000       7.50000030E-02  0.325076520      -5.60403988E-03  0.325124830    
   1.81250000      0.125000000      0.520252705      -7.99957942E-03  0.520314217    
   1.81250000      0.175000012      0.693311334      -9.26369149E-03  0.693373263    
   1.81250000      0.224999994      0.841851532      -9.55915079E-03  0.841905832    
   1.81250000      0.275000006      0.965209603      -9.02829319E-03  0.965251863    
   1.81250000      0.324999988       1.06344402      -7.81462714E-03   1.06347275    
   1.81250000      0.375000000       1.13680029      -6.06681919E-03   1.13681650    
   1.81250000      0.425000012       1.18552423      -3.93678620E-03   1.18553078    
   1.81250000      0.475000024       1.20980597      -1.57774216E-03   1.20980704    
   1.81250000      0.524999976       1.20975113       8.57232662E-04   1.20975137    
   1.81250000      0.575000048       1.18536210       3.21548595E-03   1.18536651    
   1.81250000      0.625000000       1.13653851       5.34396060E-03   1.13655114    
   1.81250000      0.675000012       1.06309700       7.08959159E-03   1.06312060    
   1.81250000      0.725000024      0.964798331       8.30060896E-03  0.964834034    
   1.81250000      0.774999976      0.841405511       8.82880948E-03  0.841451824    