 TITLE= "TESTPLOT" 
 VARIABLES="x","y","fx","fy","magf" 
 ZONE T="1", I=          81 , J=          21
   0.00000000       0.00000000       1.00000000       0.00000000       1.00000000    
   0.00000000       2.50000004E-02   1.00000000       0.00000000       1.00000000    
   0.00000000       7.50000030E-02   1.00000000       0.00000000       1.00000000    
   0.00000000      0.125000000       1.00000000       0.00000000       1.00000000    
   0.00000000      0.175000012       1.00000000       0.00000000       1.00000000    
   0.00000000      0.224999994       1.00000000       0.00000000       1.00000000    
   0.00000000      0.275000006       1.00000000       0.00000000       1.00000000    
   0.00000000      0.324999988       1.00000000       0.00000000       1.00000000    
   0.00000000      0.375000000       1.00000000       0.00000000       1.00000000    
   0.00000000      0.425000012       1.00000000       0.00000000       1.00000000    
   0.00000000      0.475000024       1.00000000       0.00000000       1.00000000    
   0.00000000      0.524999976       1.00000000       0.00000000       1.00000000    
   0.00000000      0.575000048       1.00000000       0.00000000       1.00000000    
   0.00000000      0.625000000       1.00000000       0.00000000       1.00000000    
   0.00000000      0.675000012       1.00000000       0.00000000       1.00000000    
   0.00000000      0.725000024       1.00000000       0.00000000       1.00000000    
   0.00000000      0.774999976       1.00000000       0.00000000       1.00000000    
   0.00000000      0.825000048       1.00000000       0.00000000       1.00000000    
   0.00000000      0.875000000       1.00000000       0.00000000       1.00000000    
   0.00000000      0.925000012       1.00000000       0.00000000       1.00000000    
   0.00000000      0.975000024       1.00000000       0.00000000       1.00000000    
   0.00000000       1.00000000       1.00000000       0.00000000       1.00000000    
   6.25000000E-02   0.00000000      0.500000000       0.00000000      0.500000000    
   6.25000000E-02   2.50000004E-02  0.716381669      0.111083783      0.724942923    
   6.25000000E-02   7.50000030E-02  0.919972479      0.251636893      0.953766465    
   6.25000000E-02  0.125000000       1.01073086      0.274276257       1.04728425    
   6.25000000E-02  0.175000012       1.04560208      0.246669441       1.07430422    
   6.25000000E-02  0.224999994       1.05379021      0.201841533       1.07294631    
   6.25000000E-02  0.275000006       1.05049491      0.155058086       1.06187689    
   6.25000000E-02  0.324999988       1.04348993      0.112395518       1.04952562    
   6.25000000E-02  0.375000000       1.03656125       7.53063560E-02   1.03929317    
   6.25000000E-02  0.425000012       1.03141415       4.30469438E-02   1.03231204    
   6.25000000E-02  0.475000024       1.02873254       1.39184901E-02   1.02882671    
   6.25000000E-02  0.524999976       1.02873898      -1.41399438E-02   1.02883613    
   6.25000000E-02  0.575000048       1.03143239      -4.32779491E-02   1.03233993    
   6.25000000E-02  0.625000000       1.03659201      -7.55568445E-02   1.03934205    
   6.25000000E-02  0.675000012       1.04353523     -0.112676889       1.04960084    
   6.25000000E-02  0.725000024       1.05055737     -0.155383036       1.06198621    
   6.25000000E-02  0.774999976       1.05386853     -0.202222228       1.07309484    
   6.25000000E-02  0.825000048       1.04569578     -0.247116715       1.07449818    
   6.25000000E-02  0.875000000       1.01083374     -0.274797261       1.04752016    
   6.25000000E-02  0.925000012      0.920071006     -0.252221495      0.954015911    
   6.25000000E-02  0.975000024      0.716451347     -0.111388937      0.725058615    
   6.25000000E-02   1.00000000      0.500000000       0.00000000      0.500000000    
  0.187500000       0.00000000       0.00000000       0.00000000       0.00000000    
  0.187500000       2.50000004E-02  0.338620067       3.52732539E-02  0.340452284    
  0.187500000       7.50000030E-02  0.729766548      0.112050273      0.738318682    
  0.187500000      0.125000000      0.947878718      0.180422872      0.964897096    
  0.187500000      0.175000012       1.06122303      0.216721401       1.08312631    
  0.187500000      0.224999994       1.11299849      0.221421704       1.13480973    
  0.187500000      0.275000006       1.13064337      0.202268660       1.14859354    
  0.187500000      0.324999988       1.13128614      0.167560667       1.14362788    
  0.187500000      0.375000000       1.12529767      0.123844497       1.13209200    
  0.187500000      0.425000012       1.11869335       7.55046755E-02   1.12123847    
  0.187500000      0.475000024       1.11470354       2.51392629E-02   1.11498690    
  0.187500000      0.524999976       1.11472225      -2.57779900E-02   1.11502028    
  0.187500000      0.575000048       1.11874795      -7.61528239E-02   1.12133682    
  0.187500000      0.625000000       1.12538743     -0.124510631       1.13225436    
  0.187500000      0.675000012       1.13141036     -0.168251067       1.14385211    
  0.187500000      0.725000024       1.13080025     -0.202984780       1.14887416    
  0.187500000      0.774999976       1.11318028     -0.222160012       1.13513231    
  0.187500000      0.825000048       1.06142104     -0.217472404       1.08347070    
  0.187500000      0.875000000      0.948076367     -0.181170359      0.965231299    
  0.187500000      0.925000012      0.729938149     -0.112767696      0.738597453    
  0.187500000      0.975000024      0.338729799      -3.56201418E-02  0.340597510    
  0.187500000       1.00000000       0.00000000       0.00000000       0.00000000    
  0.312500000       0.00000000       0.00000000       0.00000000       0.00000000    
  0.312500000       2.50000004E-02  0.212852478       1.02656353E-02  0.213099882    
  0.312500000       7.50000030E-02  0.558439851       4.24229130E-02  0.560048938    
  0.312500000      0.125000000      0.813190162       8.61923993E-02  0.817745268    
  0.312500000      0.175000012      0.987257838      0.123100996      0.994902968    
  0.312500000      0.224999994       1.09791875      0.143768802       1.10729182    
  0.312500000      0.275000006       1.16287661      0.145811975       1.17198253    
  0.312500000      0.324999988       1.19742727      0.130922168       1.20456326    
  0.312500000      0.375000000       1.21353161      0.102641106       1.21786463    
  0.312500000      0.425000012       1.21976292       6.50122613E-02   1.22149420    
  0.312500000      0.475000024       1.22157311       2.19541844E-02   1.22177041    
  0.312500000      0.524999976       1.22159719      -2.28740294E-02   1.22181129    
  0.312500000      0.575000048       1.21983290      -6.59304708E-02   1.22161329    
  0.312500000      0.625000000       1.21364212     -0.103555776       1.21805215    
  0.312500000      0.675000012       1.19757044     -0.131828353       1.20480442    
  0.312500000      0.725000024       1.16304016     -0.146701738       1.17225587    
  0.312500000      0.774999976       1.09808826     -0.144632950       1.10757232    
  0.312500000      0.825000048      0.987417102     -0.123929188      0.995163798    
  0.312500000      0.875000000      0.813324153      -8.69751424E-02  0.817961395    
  0.312500000      0.925000012      0.558536232      -4.31476198E-02  0.560200334    
  0.312500000      0.975000024      0.212905303      -1.06113283E-02  0.213169575    
  0.312500000       1.00000000       0.00000000       0.00000000       0.00000000    
  0.437500000       0.00000000       0.00000000       0.00000000       0.00000000    
  0.437500000       2.50000004E-02  0.168336809       2.77192215E-03  0.168359622    
  0.437500000       7.50000030E-02  0.466691315       1.52160637E-02  0.466939300    
  0.437500000      0.125000000      0.715144157       3.70997787E-02  0.716105819    
  0.437500000      0.175000012      0.910251319       5.99571913E-02  0.912223876    
  0.437500000      0.224999994       1.05521739       7.69223869E-02   1.05801737    
  0.437500000      0.275000006       1.15724695       8.39632973E-02   1.16028893    
  0.437500000      0.324999988       1.22512484       7.97777325E-02   1.22771955    
  0.437500000      0.375000000       1.26742983       6.51728436E-02   1.26910436    
  0.437500000      0.425000012       1.29135656       4.23577763E-02   1.29205108    
  0.437500000      0.475000024       1.30201221       1.43555850E-02   1.30209136    
  0.437500000      0.524999976       1.30202913      -1.54116396E-02   1.30212033    
  0.437500000      0.575000048       1.29140413      -4.34036851E-02   1.29213333    
  0.437500000      0.625000000       1.26749945      -6.61976561E-02   1.26922691    
  0.437500000      0.675000012       1.22520590      -8.07697624E-02   1.22786534    
  0.437500000      0.725000024       1.15732586      -8.49118680E-02   1.16043663    
  0.437500000      0.774999976       1.05528188      -7.78195858E-02   1.05814731    
  0.437500000      0.825000048      0.910290718      -6.07976131E-02  0.912318766    
  0.437500000      0.875000000      0.715158045      -3.78816463E-02  0.716160655    
  0.437500000      0.925000012      0.466689587      -1.59358718E-02  0.466961592    
  0.437500000      0.975000024      0.168342188      -3.11534852E-03  0.168371007    
  0.437500000       1.00000000       0.00000000       0.00000000       0.00000000    
  0.562500000       0.00000000       0.00000000       0.00000000       0.00000000    
  0.562500000       2.50000004E-02  0.149407730       3.08803028E-05  0.149407730    
  0.562500000       7.50000030E-02  0.420393497       3.77324992E-03  0.420410424    
  0.562500000      0.125000000      0.657212794       1.33167934E-02  0.657347679    
  0.562500000      0.175000012      0.855942011       2.51004100E-02  0.856309950    
  0.562500000      0.224999994       1.01578164       3.53820994E-02   1.01639771    
  0.562500000      0.275000006       1.13874722       4.12660763E-02   1.13949466    
  0.562500000      0.324999988       1.22877836       4.11417559E-02   1.22946692    
  0.562500000      0.375000000       1.29064405       3.47518623E-02   1.29111183    
  0.562500000      0.425000012       1.32890439       2.30148062E-02   1.32910371    
  0.562500000      0.475000024       1.34708393       7.72210909E-03   1.34710610    
  0.562500000      0.524999976       1.34708571      -8.80901143E-03   1.34711456    
  0.562500000      0.575000048       1.32890487      -2.40869951E-02   1.32912314    
  0.562500000      0.625000000       1.29063535      -3.57950404E-02   1.29113162    
  0.562500000      0.675000012       1.22875309      -4.21431512E-02   1.22947562    
  0.562500000      0.725000024       1.13869786      -4.22155187E-02   1.13948011    
  0.562500000      0.774999976       1.01570463      -3.62728313E-02   1.01635206    
  0.562500000      0.825000048      0.855839670      -2.59302557E-02  0.856232405    
  0.562500000      0.875000000      0.657100201      -1.40888793E-02  0.657251179    
  0.562500000      0.925000012      0.420299888      -4.48735384E-03  0.420323849    
  0.562500000      0.975000024      0.149375111      -3.72696144E-04  0.149375573    
  0.562500000       1.00000000       0.00000000       0.00000000       0.00000000    
  0.687500000       0.00000000       0.00000000       0.00000000       0.00000000    
  0.687500000       2.50000004E-02  0.140232980      -1.12958590E-03  0.140237540    
  0.687500000       7.50000030E-02  0.396096766      -1.38714793E-03  0.396099180    
  0.687500000      0.125000000      0.623933196       1.83592108E-03  0.623935878    
  0.687500000      0.175000012      0.821017265       7.07903318E-03  0.821047783    
  0.687500000      0.224999994      0.985922337       1.24595128E-02  0.986001074    
  0.687500000      0.275000006       1.11871338       1.62833612E-02   1.11883187    
  0.687500000      0.324999988       1.22075403       1.73825938E-02   1.22087777    
  0.687500000      0.375000000       1.29422498       1.53016746E-02   1.29431546    
  0.687500000      0.425000012       1.34150541       1.03180911E-02   1.34154510    
  0.687500000      0.475000024       1.36457896       3.32489214E-03   1.36458302    
  0.687500000      0.524999976       1.36456168      -4.37987689E-03   1.36456871    
  0.687500000      0.575000048       1.34144998      -1.13580031E-02   1.34149802    
  0.687500000      0.625000000       1.29412746      -1.63122993E-02   1.29423022    
  0.687500000      0.675000012       1.22061348      -1.83520298E-02   1.22075140    
  0.687500000      0.725000024       1.11853027      -1.72037035E-02   1.11866260    
  0.687500000      0.774999976      0.985703945      -1.33261364E-02  0.985794008    
  0.687500000      0.825000048      0.820779443      -7.89074879E-03  0.820817351    
  0.687500000      0.875000000      0.623705506      -2.59648031E-03  0.623710871    
  0.687500000      0.925000012      0.395922959       6.78227341E-04  0.395923525    
  0.687500000      0.975000024      0.140168160       7.88971025E-04  0.140170380    
  0.687500000       1.00000000       0.00000000       0.00000000       0.00000000    
  0.812500000       0.00000000       0.00000000       0.00000000       0.00000000    
  0.812500000       2.50000004E-02  0.135249019      -1.64553686E-03  0.135259032    
  0.812500000       7.50000030E-02  0.382255286      -3.76193668E-03  0.382273793    
  0.812500000      0.125000000      0.603773892      -3.64900427E-03  0.603784919    
  0.812500000      0.175000012      0.797990263      -1.87282707E-03  0.797992468    
  0.812500000      0.224999994      0.963617742       6.28149603E-04  0.963617921    
  0.812500000      0.275000006       1.10009527       2.92462972E-03   1.10009921    
  0.812500000      0.324999988       1.20759797       4.28663567E-03   1.20760560    
  0.812500000      0.375000000       1.28686857       4.32342757E-03   1.28687584    
  0.812500000      0.425000012       1.33891022       3.03871860E-03   1.33891368    
  0.812500000      0.475000024       1.36464190       7.96261360E-04   1.36464214    
  0.812500000      0.524999976       1.36460555      -1.79037696E-03   1.36460674    
  0.812500000      0.575000048       1.33880162      -4.01956588E-03   1.33880770    
  0.812500000      0.625000000       1.28668940      -5.27915964E-03   1.28670025    
  0.812500000      0.675000012       1.20735228      -5.20707481E-03   1.20736349    
  0.812500000      0.725000024       1.09979272      -3.80327040E-03   1.09979928    
  0.812500000      0.774999976      0.963276684      -1.46217260E-03  0.963277817    
  0.812500000      0.825000048      0.797637701       1.08336459E-03  0.797638416    
  0.812500000      0.875000000      0.603450656       2.90092733E-03  0.603457630    
  0.812500000      0.925000012      0.382015973       3.05837300E-03  0.382028222    
  0.812500000      0.975000024      0.135158628       1.30622392E-03  0.135164946    
  0.812500000       1.00000000       0.00000000       0.00000000       0.00000000    
  0.937500000       0.00000000       0.00000000       0.00000000       0.00000000    
  0.937500000       2.50000004E-02  0.132123992      -1.87294697E-03  0.132137269    
  0.937500000       7.50000030E-02  0.373322129      -4.83733090E-03  0.373353451    
  0.937500000      0.125000000      0.590170324      -6.20005839E-03  0.590202928    
  0.937500000      0.175000012      0.781383634      -6.14721328E-03  0.781407773    
  0.937500000      0.224999994      0.945892572      -5.16641140E-03  0.945906699    
  0.937500000      0.275000006       1.08297086      -3.77228670E-03   1.08297741    
  0.937500000      0.324999988       1.19229054      -2.41050916E-03   1.19229293    
  0.937500000      0.375000000       1.27387917      -1.37733121E-03   1.27387989    
  0.937500000      0.425000012       1.32798767      -7.76565284E-04   1.32798791    
  0.937500000      0.475000024       1.35491681      -5.24068368E-04   1.35491693    
  0.937500000      0.524999976       1.35486555      -4.00085701E-04   1.35486555    
  0.937500000      0.575000048       1.32783556      -1.37075680E-04   1.32783556    
  0.937500000      0.625000000       1.27363300       4.82885458E-04   1.27363312    
  0.937500000      0.675000012       1.19195986       1.54235947E-03   1.19196081    
  0.937500000      0.725000024       1.08257270       2.93608848E-03   1.08257663    
  0.937500000      0.774999976      0.945454180       4.36500646E-03  0.945464253    
  0.937500000      0.825000048      0.780941665       5.38019557E-03  0.780960202    
  0.937500000      0.875000000      0.589773476       5.46510890E-03  0.589798808    
  0.937500000      0.925000012      0.373033285       4.13963664E-03  0.373056263    
  0.937500000      0.975000024      0.132015139       1.53506023E-03  0.132024065    
  0.937500000       1.00000000       0.00000000       0.00000000       0.00000000    
   1.06250000       0.00000000       0.00000000       0.00000000       0.00000000    
   1.06250000       2.50000004E-02  0.129807800      -1.96896680E-03  0.129822731    
   1.06250000       7.50000030E-02  0.366626948      -5.30378474E-03  0.366665304    
   1.06250000      0.125000000      0.579687357      -7.33431894E-03  0.579733729    
   1.06250000      0.175000012      0.767988920      -8.09159502E-03  0.768031538    
   1.06250000      0.224999994      0.930619836      -7.85659812E-03  0.930653036    
   1.06250000      0.275000006       1.06683540      -6.93701301E-03   1.06685793    
   1.06250000      0.324999988       1.17611277      -5.62251545E-03   1.17612624    
   1.06250000      0.375000000       1.25815177      -4.14152071E-03   1.25815856    
   1.06250000      0.425000012       1.31283069      -2.63621612E-03   1.31283331    
   1.06250000      0.475000024       1.34013104      -1.15996017E-03   1.34013152    
   1.06250000      0.524999976       1.34006906       3.01069231E-04   1.34006906    
   1.06250000      0.575000048       1.31264663       1.78487180E-03   1.31264782    
   1.06250000      0.625000000       1.25785518       3.30371317E-03   1.25785959    
   1.06250000      0.675000012       1.17571878       4.80392482E-03   1.17572868    
   1.06250000      0.725000024       1.06636703       6.14148378E-03   1.06638467    
   1.06250000      0.774999976      0.930109978       7.08516128E-03  0.930136919    
   1.06250000      0.825000048      0.767481506       7.34467246E-03  0.767516673    
   1.06250000      0.875000000      0.579238057       6.61118887E-03  0.579275787    
   1.06250000      0.925000012      0.366303414       4.61085606E-03  0.366332442    
   1.06250000      0.975000024      0.129685983       1.63190661E-03  0.129696250    
   1.06250000       1.00000000       0.00000000       0.00000000       0.00000000    
   1.18750000       0.00000000       0.00000000       0.00000000       0.00000000    
   1.18750000       2.50000004E-02  0.127822936      -2.00602040E-03  0.127838671    
   1.18750000       7.50000030E-02  0.360901833      -5.49175637E-03  0.360943615    
   1.18750000      0.125000000      0.570612550      -7.80645525E-03  0.570665956    
   1.18750000      0.175000012      0.756102681      -8.92135594E-03  0.756155312    
   1.18750000      0.224999994      0.916557550      -9.02902428E-03  0.916602015    
   1.18750000      0.275000006       1.05125332      -8.34031682E-03   1.05128646    
   1.18750000      0.324999988       1.15960145      -7.06565473E-03   1.15962303    
   1.18750000      0.375000000       1.24116445      -5.39446203E-03   1.24117613    
   1.18750000      0.425000012       1.29565334      -3.48118297E-03   1.29565799    
   1.18750000      0.475000024       1.32289934      -1.44166022E-03   1.32290018    
   1.18750000      0.524999976       1.32282996       6.38149679E-04   1.32283008    
   1.18750000      0.575000048       1.29544747       2.68284697E-03   1.29545021    
   1.18750000      0.625000000       1.24083304       4.60564950E-03   1.24084163    
   1.18750000      0.675000012       1.15916300       6.28962228E-03   1.15918005    
   1.18750000      0.725000024       1.05073655       7.57905329E-03   1.05076385    
   1.18750000      0.774999976      0.915999770       8.28346331E-03  0.916037202    
   1.18750000      0.825000048      0.755552590       8.19190592E-03  0.755596995    
   1.18750000      0.875000000      0.570129812       7.09291594E-03  0.570173919    
   1.18750000      0.925000012      0.360556841       4.80279792E-03  0.360588819    
   1.18750000      0.975000024      0.127693802       1.66992168E-03  0.127704725    
   1.18750000       1.00000000       0.00000000       0.00000000       0.00000000    
   1.31250000       0.00000000       0.00000000       0.00000000       0.00000000    
   1.31250000       2.50000004E-02  0.125961006      -2.01844634E-03  0.125977173    
   1.31250000       7.50000030E-02  0.355567873      -5.55936666E-03  0.355611324    
   1.31250000      0.125000000      0.562133133      -7.98454881E-03  0.562189817    
   1.31250000      0.175000012      0.744880438      -9.24503990E-03  0.744937837    
   1.31250000      0.224999994      0.903051972      -9.49773751E-03  0.903101921    
   1.31250000      0.275000006       1.03595030      -8.91198777E-03   1.03598869    
   1.31250000      0.324999988       1.14297259      -7.66177941E-03   1.14299822    
   1.31250000      0.375000000       1.22363257      -5.91584202E-03   1.22364688    
   1.31250000      0.425000012       1.27757311      -3.83133418E-03   1.27757883    
   1.31250000      0.475000024       1.30456233      -1.55154197E-03   1.30456328    
   1.31250000      0.524999976       1.30448830       7.92850391E-04   1.30448854    
   1.31250000      0.575000048       1.27735353       3.07554100E-03   1.27735722    
   1.31250000      0.625000000       1.22327936       5.16498927E-03   1.22329032    
   1.31250000      0.675000012       1.14250696       6.91830041E-03   1.14252794    
   1.31250000      0.725000024       1.03540421       8.17729160E-03   1.03543651    
   1.31250000      0.774999976      0.902465820       8.77200160E-03  0.902508438    
   1.31250000      0.825000048      0.744305611       8.52877088E-03  0.744354486    
   1.31250000      0.875000000      0.561631799       7.27852341E-03  0.561679006    
   1.31250000      0.925000012      0.355211377       4.87329066E-03  0.355244815    
   1.31250000      0.975000024      0.125828207       1.68275798E-03  0.125839457    
   1.31250000       1.00000000       0.00000000       0.00000000       0.00000000    
   1.43750000       0.00000000       0.00000000       0.00000000       0.00000000    
   1.43750000       2.50000004E-02  0.124136925      -2.02126708E-03  0.124153383    
   1.43750000       7.50000030E-02  0.350373238      -5.57800289E-03  0.350417644    
   1.43750000      0.125000000      0.553881645      -8.03949032E-03  0.553939998    
   1.43750000      0.175000012      0.733925760      -9.35210846E-03  0.733985305    
   1.43750000      0.224999994      0.889782548      -9.66042280E-03  0.889835000    
   1.43750000      0.275000006       1.02077663      -9.11729969E-03   1.02081728    
   1.43750000      0.324999988       1.12630963      -7.88065605E-03   1.12633717    
   1.43750000      0.375000000       1.20588422      -6.10929867E-03   1.20589972    
   1.43750000      0.425000012       1.25912023      -3.96038545E-03   1.25912654    
   1.43750000      0.475000024       1.28576374      -1.58706913E-03   1.28576469    
   1.43750000      0.524999976       1.28568697       8.61331820E-04   1.28568721    
   1.43750000      0.575000048       1.25889397       3.23603628E-03   1.25889814    
   1.43750000      0.625000000       1.20551944       5.38721774E-03   1.20553148    
   1.43750000      0.675000012       1.12582994       7.16195814E-03   1.12585270    
   1.43750000      0.725000024       1.02021551       8.40267353E-03   1.02025008    
   1.43750000      0.774999976      0.889182806       8.94968957E-03  0.889227867    
   1.43750000      0.825000048      0.733339906       8.64557177E-03  0.733390868    
   1.43750000      0.875000000      0.553372622       7.33851455E-03  0.553421259    
   1.43750000      0.925000012      0.350012481       4.89387615E-03  0.350046694    
   1.43750000      0.975000024      0.124002382       1.68602890E-03  0.124013841    
   1.43750000       1.00000000       0.00000000       0.00000000       0.00000000    
   1.56250000       0.00000000       0.00000000       0.00000000       0.00000000    
   1.56250000       2.50000004E-02  0.122317977      -2.02059676E-03  0.122334667    
   1.56250000       7.50000030E-02  0.345215380      -5.57845645E-03  0.345260441    
   1.56250000      0.125000000      0.545702279      -8.04731250E-03  0.545761585    
   1.56250000      0.175000012      0.723065138      -9.37427208E-03  0.723125875    
   1.56250000      0.224999994      0.876603007      -9.70097445E-03  0.876656711    
   1.56250000      0.275000006       1.00565803      -9.17376205E-03   1.00569987    
   1.56250000      0.324999988       1.10964215      -7.94373639E-03   1.10967052    
   1.56250000      0.375000000       1.18806052      -6.16606511E-03   1.18807650    
   1.56250000      0.425000012       1.24053025      -3.99685884E-03   1.24053669    
   1.56250000      0.475000024       1.26679182      -1.59259944E-03   1.26679277    
   1.56250000      0.524999976       1.26671433       8.89527902E-04   1.26671469    
   1.56250000      0.575000048       1.24030137       3.29363230E-03   1.24030578    
   1.56250000      0.625000000       1.18769169       5.46354707E-03   1.18770421    
   1.56250000      0.675000012       1.10915756       7.24174269E-03   1.10918117    
   1.56250000      0.725000024       1.00509250       8.47201049E-03   1.00512826    
   1.56250000      0.774999976      0.876000643       8.99987668E-03  0.876046896    
   1.56250000      0.825000048      0.722478211       8.67441669E-03  0.722530246    
   1.56250000      0.875000000      0.545193672       7.35013653E-03  0.545243204    
   1.56250000      0.925000012      0.344856054       4.89608198E-03  0.344890803    
   1.56250000      0.975000024      0.122185051       1.68587128E-03  0.122196682    
   1.56250000       1.00000000       0.00000000       0.00000000       0.00000000    
   1.68750000       0.00000000       0.00000000       0.00000000       0.00000000    
   1.68750000       2.50000004E-02  0.120495737      -2.01911479E-03  0.120512649    
   1.68750000       7.50000030E-02  0.340059906      -5.57436422E-03  0.340105593    
   1.68750000      0.125000000      0.537537336      -8.04227777E-03  0.537597477    
   1.68750000      0.175000012      0.712229848      -9.37087834E-03  0.712291479    
   1.68750000      0.224999994      0.863452077      -9.70098935E-03  0.863506556    
   1.68750000      0.275000006      0.990560234      -9.17791761E-03  0.990602732    
   1.68750000      0.324999988       1.09297776      -7.95110408E-03   1.09300661    
   1.68750000      0.375000000       1.17021680      -6.17324468E-03   1.17023313    
   1.68750000      0.425000012       1.22189951      -4.00020927E-03   1.22190607    
   1.68750000      0.475000024       1.24776721      -1.58954668E-03   1.24776816    
   1.68750000      0.524999976       1.24769020       9.00579558E-04   1.24769056    
   1.68750000      0.575000048       1.22167099       3.31105734E-03   1.22167552    
   1.68750000      0.625000000       1.16984940       5.48317656E-03   1.16986227    
   1.68750000      0.675000012       1.09249473       7.25975959E-03   1.09251881    
   1.68750000      0.725000024      0.989997625       8.48510116E-03  0.990033984    
   1.68750000      0.774999976      0.862854004       9.00630746E-03  0.862901032    
   1.68750000      0.825000048      0.711648345       8.67486745E-03  0.711701274    
   1.68750000      0.875000000      0.537034214       7.34750647E-03  0.537084460    
   1.68750000      0.925000012      0.339704931       4.89342539E-03  0.339740187    
   1.68750000      0.975000024      0.120364808       1.68477476E-03  0.120376594    
   1.68750000       1.00000000       0.00000000       0.00000000       0.00000000    
   1.81250000       0.00000000       0.00000000       0.00000000       0.00000000    
   1.81250000       2.50000004E-02  0.118669473      -2.01806892E-03  0.118686631    
   1.81250000       7.50000030E-02  0.334897995      -5.57054393E-03  0.334944308    
   1.81250000      0.125000000      0.529368997      -8.03521089E-03  0.529429972    
   1.81250000      0.175000012      0.701395690      -9.36152413E-03  0.701458156    
   1.81250000      0.224999994      0.850306511      -9.69079882E-03  0.850361764    
   1.81250000      0.275000006      0.975468993      -9.16814059E-03  0.975512087    
   1.81250000      0.324999988       1.07631743      -7.94260111E-03   1.07634676    
   1.81250000      0.375000000       1.15237272      -6.16623135E-03   1.15238917    
   1.81250000      0.425000012       1.20326328      -3.99436988E-03   1.20326996    
   1.81250000      0.475000024       1.22873425      -1.58481440E-03   1.22873533    
   1.81250000      0.524999976       1.22865772       9.04045301E-04   1.22865808    
   1.81250000      0.575000048       1.20303714       3.31301894E-03   1.20304167    
   1.81250000      0.625000000       1.15200925       5.48310950E-03   1.15202224    
   1.81250000      0.675000012       1.07584023       7.25718541E-03   1.07586467    
   1.81250000      0.725000024      0.974913418       8.48004594E-03  0.974950314    
   1.81250000      0.774999976      0.849716246       8.99963826E-03  0.849763930    