 TITLE= "TESTPLOT" 
 VARIABLES="x","y","fx","fy","magf" 
 ZONE T="1", I=          81 , J=          21
   0.00000000       0.00000000       1.00000000       0.00000000       1.00000000    
   0.00000000       2.50000004E-02   1.00000000       0.00000000       1.00000000    
   0.00000000       7.50000030E-02   1.00000000       0.00000000       1.00000000    
   0.00000000      0.125000000       1.00000000       0.00000000       1.00000000    
   0.00000000      0.175000012       1.00000000       0.00000000       1.00000000    
   0.00000000      0.224999994       1.00000000       0.00000000       1.00000000    
   0.00000000      0.275000006       1.00000000       0.00000000       1.00000000    
   0.00000000      0.324999988       1.00000000       0.00000000       1.00000000    
   0.00000000      0.375000000       1.00000000       0.00000000       1.00000000    
   0.00000000      0.425000012       1.00000000       0.00000000       1.00000000    
   0.00000000      0.475000024       1.00000000       0.00000000       1.00000000    
   0.00000000      0.524999976       1.00000000       0.00000000       1.00000000    
   0.00000000      0.575000048       1.00000000       0.00000000       1.00000000    
   0.00000000      0.625000000       1.00000000       0.00000000       1.00000000    
   0.00000000      0.675000012       1.00000000       0.00000000       1.00000000    
   0.00000000      0.725000024       1.00000000       0.00000000       1.00000000    
   0.00000000      0.774999976       1.00000000       0.00000000       1.00000000    
   0.00000000      0.825000048       1.00000000       0.00000000       1.00000000    
   0.00000000      0.875000000       1.00000000       0.00000000       1.00000000    
   0.00000000      0.925000012       1.00000000       0.00000000       1.00000000    
   0.00000000      0.975000024       1.00000000       0.00000000       1.00000000    
   0.00000000       1.00000000       1.00000000       0.00000000       1.00000000    
   6.25000000E-02   0.00000000      0.500000000       0.00000000      0.500000000    
   6.25000000E-02   2.50000004E-02  0.717702866      0.109796017      0.726052701    
   6.25000000E-02   7.50000030E-02  0.925143480      0.246176139      0.957336485    
   6.25000000E-02  0.125000000       1.01671863      0.262719572       1.05011356    
   6.25000000E-02  0.175000012       1.04899478      0.229729980       1.07385564    
   6.25000000E-02  0.224999994       1.05301654      0.182224184       1.06866717    
   6.25000000E-02  0.275000006       1.04596686      0.135930583       1.05476248    
   6.25000000E-02  0.324999988       1.03661060       9.61997062E-02   1.04106486    
   6.25000000E-02  0.375000000       1.02870631       6.33729696E-02   1.03065658    
   6.25000000E-02  0.425000012       1.02341199       3.58256176E-02   1.02403891    
   6.25000000E-02  0.475000024       1.02082682       1.14301611E-02   1.02089083    
   6.25000000E-02  0.524999976       1.02083099      -1.19328564E-02   1.02090073    
   6.25000000E-02  0.575000048       1.02342463      -3.63348015E-02   1.02406943    
   6.25000000E-02  0.625000000       1.02872968      -6.38961866E-02   1.03071213    
   6.25000000E-02  0.675000012       1.03664660      -9.67462212E-02   1.04115129    
   6.25000000E-02  0.725000024       1.04601812     -0.136511043       1.05488825    
   6.25000000E-02  0.774999976       1.05308390     -0.182850152       1.06884038    
   6.25000000E-02  0.825000048       1.04907739     -0.230412602       1.07408261    
   6.25000000E-02  0.875000000       1.01681125     -0.263466150       1.05039012    
   6.25000000E-02  0.925000012      0.925237179     -0.246975005      0.957632780    
   6.25000000E-02  0.975000024      0.717779279     -0.110205092      0.726190269    
   6.25000000E-02   1.00000000      0.500000000       0.00000000      0.500000000    
  0.187500000       0.00000000       0.00000000       0.00000000       0.00000000    
  0.187500000       2.50000004E-02  0.348771095       3.15074921E-02  0.350191385    
  0.187500000       7.50000030E-02  0.757747531       9.66420993E-02  0.763885438    
  0.187500000      0.125000000      0.980089903      0.148223534      0.991234839    
  0.187500000      0.175000012       1.08349073      0.168594539       1.09652913    
  0.187500000      0.224999994       1.11758399      0.163008779       1.12940955    
  0.187500000      0.275000006       1.11723912      0.141502440       1.12616444    
  0.187500000      0.324999988       1.10412407      0.112255871       1.10981596    
  0.187500000      0.375000000       1.08967757       8.02257359E-02   1.09262681    
  0.187500000      0.425000012       1.07884359       4.77488786E-02   1.07989979    
  0.187500000      0.475000024       1.07325506       1.55375004E-02   1.07336748    
  0.187500000      0.524999976       1.07326651      -1.65075529E-02   1.07339346    
  0.187500000      0.575000048       1.07887900      -4.87238392E-02   1.07997870    
  0.187500000      0.625000000       1.08973932      -8.12102333E-02   1.09276116    
  0.187500000      0.675000012       1.10421515     -0.113253072       1.11000776    
  0.187500000      0.725000024       1.11736012     -0.142512977       1.12641180    
  0.187500000      0.774999976       1.11773098     -0.164029092       1.12970269    
  0.187500000      0.825000048       1.08365369     -0.169614971       1.09684753    
  0.187500000      0.875000000      0.980251670     -0.149226993      0.991545260    
  0.187500000      0.925000012      0.757891595      -9.75961983E-02  0.764149606    
  0.187500000      0.975000024      0.348881185      -3.19666862E-02  0.350342602    
  0.187500000       1.00000000       0.00000000       0.00000000       0.00000000    
  0.312500000       0.00000000       0.00000000       0.00000000       0.00000000    
  0.312500000       2.50000004E-02  0.237952486       6.53299177E-03  0.238042146    
  0.312500000       7.50000030E-02  0.621958733       2.69834008E-02  0.622543752    
  0.312500000      0.125000000      0.887336254       5.32852449E-02  0.888934731    
  0.312500000      0.175000012       1.04339337       7.25328103E-02   1.04591143    
  0.312500000      0.224999994       1.11834967       8.03345218E-02   1.12123132    
  0.312500000      0.275000006       1.14364088       7.74594098E-02   1.14626110    
  0.312500000      0.324999988       1.14429700       6.65629059E-02   1.14623129    
  0.312500000      0.375000000       1.13625586       5.03797494E-02   1.13737214    
  0.312500000      0.425000012       1.12796021       3.10658924E-02   1.12838793    
  0.312500000      0.475000024       1.12316513       1.01540545E-02   1.12321103    
  0.312500000      0.524999976       1.12317991      -1.12426551E-02   1.12323618    
  0.312500000      0.575000048       1.12800527      -3.21544707E-02   1.12846339    
  0.312500000      0.625000000       1.13633108      -5.14673665E-02   1.13749599    
  0.312500000      0.675000012       1.14440155      -6.76471144E-02   1.14639914    
  0.312500000      0.725000024       1.14376831      -7.85354227E-02   1.14646137    
  0.312500000      0.774999976       1.11848676      -8.13948959E-02   1.12144458    
  0.312500000      0.825000048       1.04351997      -7.35677034E-02   1.04611003    
  0.312500000      0.875000000      0.887430131      -5.42829335E-02  0.889088750    
  0.312500000      0.925000012      0.622013688      -2.79232115E-02  0.622640133    
  0.312500000      0.975000024      0.237991989      -6.98480662E-03  0.238094464    
  0.312500000       1.00000000       0.00000000       0.00000000       0.00000000    
  0.437500000       0.00000000       0.00000000       0.00000000       0.00000000    
  0.437500000       2.50000004E-02  0.205561250       1.50524982E-04  0.205561310    
  0.437500000       7.50000030E-02  0.559951901       4.43064701E-03  0.559969425    
  0.437500000      0.125000000      0.826285958       1.38485767E-02  0.826402009    
  0.437500000      0.175000012      0.998829484       2.33555473E-02  0.999102533    
  0.437500000      0.224999994       1.09391475       2.96675041E-02   1.09431696    
  0.437500000      0.275000006       1.13685989       3.15458253E-02   1.13729751    
  0.437500000      0.324999988       1.15071917       2.91041341E-02   1.15108716    
  0.437500000      0.375000000       1.15152264       2.31302194E-02   1.15175498    
  0.437500000      0.425000012       1.14848804       1.46446424E-02   1.14858139    
  0.437500000      0.475000024       1.14611363       4.68446501E-03   1.14612317    
  0.437500000      0.524999976       1.14612722      -5.75859798E-03   1.14614165    
  0.437500000      0.575000048       1.14852834      -1.57161225E-02   1.14863586    
  0.437500000      0.625000000       1.15158749      -2.41959840E-02   1.15184164    
  0.437500000      0.675000012       1.15080452      -3.01605649E-02   1.15119970    
  0.437500000      0.725000024       1.13695598      -3.25883888E-02   1.13742292    
  0.437500000      0.774999976       1.09400439      -3.06906085E-02   1.09443474    
  0.437500000      0.825000048      0.998891234      -2.43529528E-02  0.999188066    
  0.437500000      0.875000000      0.826302469      -1.48144364E-02  0.826435268    
  0.437500000      0.925000012      0.559932232      -5.35013108E-03  0.559957802    
  0.437500000      0.975000024      0.205558062      -5.95648715E-04  0.205558926    
  0.437500000       1.00000000       0.00000000       0.00000000       0.00000000    
  0.562500000       0.00000000       0.00000000       0.00000000       0.00000000    
  0.562500000       2.50000004E-02  0.193401337      -1.54089637E-03  0.193407461    
  0.562500000       7.50000030E-02  0.531220078      -2.45424057E-03  0.531225741    
  0.562500000      0.125000000      0.791671634       3.42912972E-06  0.791671634    
  0.562500000      0.175000012      0.966537595       3.80807044E-03  0.966545105    
  0.562500000      0.224999994       1.06829023       7.21744029E-03   1.06831467    
  0.562500000      0.275000006       1.11916757       9.22373403E-03   1.11920559    
  0.562500000      0.324999988       1.14034343       9.45180655E-03   1.14038253    
  0.562500000      0.375000000       1.14691985       7.97646306E-03   1.14694762    
  0.562500000      0.425000012       1.14777076       5.14959730E-03   1.14778233    
  0.562500000      0.475000024       1.14732957       1.47007301E-03   1.14733052    
  0.562500000      0.524999976       1.14734006      -2.49847514E-03   1.14734280    
  0.562500000      0.575000048       1.14780080      -6.17505237E-03   1.14781737    
  0.562500000      0.625000000       1.14696729      -8.99604522E-03   1.14700258    
  0.562500000      0.675000012       1.14040279      -1.04624331E-02   1.14045072    
  0.562500000      0.725000024       1.11922789      -1.02223083E-02   1.11927462    
  0.562500000      0.774999976       1.06833529      -8.20069760E-03   1.06836677    
  0.562500000      0.825000048      0.966547608      -4.77237627E-03  0.966559410    
  0.562500000      0.875000000      0.791635036      -9.45350504E-04  0.791635633    
  0.562500000      0.925000012      0.531154931       1.54868246E-03  0.531157196    
  0.562500000      0.975000024      0.193375409       1.10028824E-03  0.193378538    
  0.562500000       1.00000000       0.00000000       0.00000000       0.00000000    
  0.687500000       0.00000000       0.00000000       0.00000000       0.00000000    
  0.687500000       2.50000004E-02  0.186722934      -2.01928779E-03  0.186733857    
  0.687500000       7.50000030E-02  0.514215350      -4.57517523E-03  0.514235735    
  0.687500000      0.125000000      0.769158602      -4.63910587E-03  0.769172609    
  0.687500000      0.175000012      0.942664981      -3.29042389E-03  0.942670763    
  0.687500000      0.224999994       1.04578972      -1.54549151E-03   1.04579079    
  0.687500000      0.275000006       1.09943867      -5.20091271E-05   1.09943867    
  0.687500000      0.324999988       1.12375855       8.54731305E-04   1.12375879    
  0.687500000      0.375000000       1.13314664       1.08306529E-03   1.13314712    
  0.687500000      0.425000012       1.13604999       7.17594055E-04   1.13605022    
  0.687500000      0.475000024       1.13667893      -4.37665003E-05   1.13667893    
  0.687500000      0.524999976       1.13668621      -9.42670275E-04   1.13668656    
  0.687500000      0.575000048       1.13607085      -1.70184707E-03   1.13607204    
  0.687500000      0.625000000       1.13317871      -2.06290628E-03   1.13318062    
  0.687500000      0.675000012       1.12379622      -1.82792009E-03   1.12379777    
  0.687500000      0.725000024       1.09947157      -9.12433956E-04   1.09947193    
  0.687500000      0.774999976       1.04580307       5.91618591E-04   1.04580331    
  0.687500000      0.825000048      0.942641377       2.34914361E-03  0.942644298    
  0.687500000      0.875000000      0.769089699       3.71324830E-03  0.769098639    
  0.687500000      0.925000012      0.514124572       3.67918587E-03  0.514137745    
  0.687500000      0.975000024      0.186685026       1.58196827E-03  0.186691731    
  0.687500000       1.00000000       0.00000000       0.00000000       0.00000000    
  0.812500000       0.00000000       0.00000000       0.00000000       0.00000000    
  0.812500000       2.50000004E-02  0.181661218      -2.16006045E-03  0.181674048    
  0.812500000       7.50000030E-02  0.501161575      -5.24353143E-03  0.501188993    
  0.812500000      0.125000000      0.751360714      -6.19355915E-03  0.751386285    
  0.812500000      0.175000012      0.922750473      -5.79938293E-03  0.922768712    
  0.812500000      0.224999994       1.02549517      -4.79674852E-03   1.02550638    
  0.812500000      0.275000006       1.07977760      -3.64115043E-03   1.07978368    
  0.812500000      0.324999988       1.10519207      -2.58845231E-03   1.10519505    
  0.812500000      0.375000000       1.11572075      -1.75069447E-03   1.11572218    
  0.812500000      0.425000012       1.11952388      -1.13484019E-03   1.11952448    
  0.812500000      0.475000024       1.12064099      -6.77986071E-04   1.12064123    
  0.812500000      0.524999976       1.12064600      -2.77781190E-04   1.12064600    
  0.812500000      0.575000048       1.11953831       1.80702511E-04   1.11953831    
  0.812500000      0.625000000       1.11574185       7.99631700E-04   1.11574209    
  0.812500000      0.675000012       1.10521507       1.64203986E-03   1.10521638    
  0.812500000      0.725000024       1.07979298       2.70041823E-03   1.07979631    
  0.812500000      0.774999976       1.02548862       3.86300567E-03   1.02549589    
  0.812500000      0.825000048      0.922706664       4.87456052E-03  0.922719538    
  0.812500000      0.875000000      0.751273036       5.28037269E-03  0.751291573    
  0.812500000      0.925000012      0.501056790       4.35648905E-03  0.501075745    
  0.812500000      0.975000024      0.181616962       1.72628206E-03  0.181625172    
  0.812500000       1.00000000       0.00000000       0.00000000       0.00000000    
  0.937500000       0.00000000       0.00000000       0.00000000       0.00000000    
  0.937500000       2.50000004E-02  0.177131534      -2.20035808E-03  0.177145198    
  0.937500000       7.50000030E-02  0.489484906      -5.45409881E-03  0.489515275    
  0.937500000      0.125000000      0.735348821      -6.71504810E-03  0.735379457    
  0.937500000      0.175000012      0.904502869      -6.67916611E-03  0.904527485    
  0.937500000      0.224999994       1.00631249      -5.97728323E-03   1.00633025    
  0.937500000      0.275000006       1.06042182      -4.98198532E-03   1.06043351    
  0.937500000      0.324999988       1.08606493      -3.90446745E-03   1.08607197    
  0.937500000      0.375000000       1.09696674      -2.85206875E-03   1.09697044    
  0.937500000      0.425000012       1.10110784      -1.86163140E-03   1.10110939    
  0.937500000      0.475000024       1.10241866      -9.24783410E-04   1.10241902    
  0.937500000      0.524999976       1.10242248      -8.08313780E-06   1.10242248    
  0.937500000      0.575000048       1.10111809       9.29794391E-04   1.10111845    
  0.937500000      0.625000000       1.09698081       1.92207610E-03   1.09698248    
  0.937500000      0.675000012       1.08607888       2.97742058E-03   1.08608294    
  0.937500000      0.725000024       1.06042647       4.05866560E-03   1.06043422    
  0.937500000      0.774999976       1.00629413       5.05856564E-03   1.00630689    
  0.937500000      0.825000048      0.904447436       5.76659199E-03  0.904465854    
  0.937500000      0.875000000      0.735251188       5.81116229E-03  0.735274196    
  0.937500000      0.925000012      0.489372790       4.57379175E-03  0.489394158    
  0.937500000      0.975000024      0.177084118       1.76941312E-03  0.177092955    
  0.937500000       1.00000000       0.00000000       0.00000000       0.00000000    
   1.06250000       0.00000000       0.00000000       0.00000000       0.00000000    
   1.06250000       2.50000004E-02  0.172811538      -2.20829062E-03  0.172825649    
   1.06250000       7.50000030E-02  0.478337526      -5.51304920E-03  0.478369296    
   1.06250000      0.125000000      0.720051646      -6.88329572E-03  0.720084548    
   1.06250000      0.175000012      0.886965454      -6.98157586E-03  0.886992931    
   1.06250000      0.224999994      0.987660825      -6.39778655E-03  0.987681568    
   1.06250000      0.275000006       1.04130125      -5.47101442E-03   1.04131556    
   1.06250000      0.324999988       1.06683171      -4.39251447E-03   1.06684077    
   1.06250000      0.375000000       1.07778764      -3.26496782E-03   1.07779253    
   1.06250000      0.425000012       1.08202505      -2.13485281E-03   1.08202708    
   1.06250000      0.475000024       1.08340013      -1.01504440E-03   1.08340061    
   1.06250000      0.524999976       1.08340287       9.94475995E-05   1.08340287    
   1.06250000      0.575000048       1.08203244       1.21961208E-03   1.08203316    
   1.06250000      0.625000000       1.07779765       2.35070940E-03   1.07780015    
   1.06250000      0.675000012       1.06684005       3.48009542E-03   1.06684577    
   1.06250000      0.725000024       1.04129910       4.56113275E-03   1.04130912    
   1.06250000      0.774999976      0.987635732       5.49108535E-03  0.987650990    
   1.06250000      0.825000048      0.886903763       6.07931009E-03  0.886924565    
   1.06250000      0.875000000      0.719949365       5.98809728E-03  0.719974279    
   1.06250000      0.925000012      0.478222430       4.63996921E-03  0.478244931    
   1.06250000      0.975000024      0.172763169       1.78059074E-03  0.172772348    
   1.06250000       1.00000000       0.00000000       0.00000000       0.00000000    
   1.18750000       0.00000000       0.00000000       0.00000000       0.00000000    
   1.18750000       2.50000004E-02  0.168604597      -2.20553926E-03  0.168619022    
   1.18750000       7.50000030E-02  0.467439532      -5.52093983E-03  0.467472136    
   1.18750000      0.125000000      0.705089688      -6.92924671E-03  0.705123723    
   1.18750000      0.175000012      0.869772315      -7.07895495E-03  0.869801104    
   1.18750000      0.224999994      0.969292402      -6.54226355E-03  0.969314456    
   1.18750000      0.275000006       1.02235484      -5.64412773E-03   1.02237046    
   1.18750000      0.324999988       1.04764223      -4.56775632E-03   1.04765213    
   1.18750000      0.375000000       1.05852687      -3.41396919E-03   1.05853236    
   1.18750000      0.425000012       1.06276321      -2.23296904E-03   1.06276560    
   1.18750000      0.475000024       1.06414986      -1.04545499E-03   1.06415033    
   1.18750000      0.524999976       1.06415212       1.42844146E-04   1.06415212    
   1.18750000      0.575000048       1.06276882       1.33079966E-03   1.06276965    
   1.18750000      0.625000000       1.05853462       2.51269108E-03   1.05853760    
   1.18750000      0.675000012       1.04764771       3.66774155E-03   1.04765415    
   1.18750000      0.725000024       1.02234936       4.74572927E-03   1.02236032    
   1.18750000      0.774999976      0.969264209       5.64632285E-03  0.969280660    
   1.18750000      0.825000048      0.869707942       6.18670788E-03  0.869729936    
   1.18750000      0.875000000      0.704985380       6.04274496E-03  0.705011249    
   1.18750000      0.925000012      0.467323720       4.65504499E-03  0.467346907    
   1.18750000      0.975000024      0.168555945       1.78107957E-03  0.168565363    
   1.18750000       1.00000000       0.00000000       0.00000000       0.00000000    
   1.31250000       0.00000000       0.00000000       0.00000000       0.00000000    
   1.31250000       2.50000004E-02  0.164483249      -2.19862279E-03  0.164497942    
   1.31250000       7.50000030E-02  0.456701964      -5.51044941E-03  0.456735194    
   1.31250000      0.125000000      0.690333843      -6.93262741E-03  0.690368652    
   1.31250000      0.175000012      0.852792621      -7.10417330E-03  0.852822185    
   1.31250000      0.224999994      0.951114178      -6.58712210E-03  0.951137006    
   1.31250000      0.275000006       1.00355661      -5.70116239E-03   1.00357282    
   1.31250000      0.324999988       1.02855158      -4.62695118E-03   1.02856195    
   1.31250000      0.375000000       1.03931689      -3.46446084E-03   1.03932261    
   1.31250000      0.425000012       1.04351449      -2.26533529E-03   1.04351699    
   1.31250000      0.475000024       1.04489231      -1.05324108E-03   1.04489279    
   1.31250000      0.524999976       1.04489422       1.61956734E-04   1.04489422    
   1.31250000      0.575000048       1.04351938       1.37435412E-03   1.04352021    
   1.31250000      0.625000000       1.03932333       2.57414044E-03   1.03932655    
   1.31250000      0.675000012       1.02855551       3.73771903E-03   1.02856231    
   1.31250000      0.725000024       1.00354970       4.81337309E-03   1.00356126    
   1.31250000      0.774999976      0.951084316       5.70095982E-03  0.951101422    
   1.31250000      0.825000048      0.852727056       6.22049812E-03  0.852749705    
   1.31250000      0.875000000      0.690229297       6.05402607E-03  0.690255821    
   1.31250000      0.925000012      0.456586480       4.65197163E-03  0.456610173    
   1.31250000      0.975000024      0.164434344       1.77770841E-03  0.164443955    
   1.31250000       1.00000000       0.00000000       0.00000000       0.00000000    
   1.43750000       0.00000000       0.00000000       0.00000000       0.00000000    
   1.43750000       2.50000004E-02  0.160440952      -2.18974240E-03  0.160455897    
   1.43750000       7.50000030E-02  0.446100235      -5.49281482E-03  0.446134061    
   1.43750000      0.125000000      0.675744653      -6.92039635E-03  0.675780058    
   1.43750000      0.175000012      0.835983574      -7.10319355E-03  0.836013734    
   1.43750000      0.224999994      0.933095217      -6.59637712E-03  0.933118522    
   1.43750000      0.275000006      0.984900475      -5.71662467E-03  0.984917045    
   1.43750000      0.324999988       1.00958323      -4.64405492E-03   1.00959384    
   1.43750000      0.375000000       1.02021110      -3.47883534E-03   1.02021706    
   1.43750000      0.425000012       1.02435565      -2.27324711E-03   1.02435815    
   1.43750000      0.475000024       1.02571726      -1.05256820E-03   1.02571774    
   1.43750000      0.524999976       1.02571905       1.71837761E-04   1.02571905    
   1.43750000      0.575000048       1.02436042       1.39262667E-03   1.02436137    
   1.43750000      0.625000000       1.02021694       2.59839743E-03   1.02022028    
   1.43750000      0.675000012       1.00958633       3.76445334E-03   1.00959337    
   1.43750000      0.725000024      0.984892845       4.83821705E-03  0.984904766    
   1.43750000      0.774999976      0.933065176       5.71926497E-03  0.933082700    
   1.43750000      0.825000048      0.835918486       6.22825790E-03  0.835941732    
   1.43750000      0.875000000      0.675641358       6.05009496E-03  0.675668418    
   1.43750000      0.925000012      0.445986122       4.64216713E-03  0.446010292    
   1.43750000      0.975000024      0.160392508       1.77265611E-03  0.160402298    
   1.43750000       1.00000000       0.00000000       0.00000000       0.00000000    
   1.56250000       0.00000000       0.00000000       0.00000000       0.00000000    
   1.56250000       2.50000004E-02  0.156477451      -2.17951322E-03  0.156492636    
   1.56250000       7.50000030E-02  0.435631841      -5.47120720E-03  0.435666203    
   1.56250000      0.125000000      0.661314964      -6.90152496E-03  0.661350965    
   1.56250000      0.175000012      0.819336534      -7.09242886E-03  0.819367230    
   1.56250000      0.224999994      0.915229976      -6.59264997E-03  0.915253699    
   1.56250000      0.275000006      0.966388583      -5.71680441E-03  0.966405511    
   1.56250000      0.324999988      0.990750968      -4.64544632E-03  0.990761876    
   1.56250000      0.375000000       1.00123441      -3.47979972E-03   1.00124049    
   1.56250000      0.425000012       1.00532091      -2.27260659E-03   1.00532341    
   1.56250000      0.475000024       1.00666320      -1.04922894E-03   1.00666368    
   1.56250000      0.524999976       1.00666487       1.78449380E-04   1.00666487    
   1.56250000      0.575000048       1.00532520       1.40200148E-03   1.00532615    
   1.56250000      0.625000000       1.00123990       2.60938914E-03   1.00124335    
   1.56250000      0.675000012      0.990753651       3.77561757E-03  0.990760803    
   1.56250000      0.725000024      0.966381013       4.84763645E-03  0.966393173    
   1.56250000      0.774999976      0.915200531       5.72427455E-03  0.915218413    
   1.56250000      0.825000048      0.819272637       6.22586813E-03  0.819296300    
   1.56250000      0.875000000      0.661213636       6.03924505E-03  0.661241233    
   1.56250000      0.925000012      0.435519755       4.62821219E-03  0.435544342    
   1.56250000      0.975000024      0.156429604       1.76614476E-03  0.156439573    
   1.56250000       1.00000000       0.00000000       0.00000000       0.00000000    
   1.68750000       0.00000000       0.00000000       0.00000000       0.00000000    
   1.68750000       2.50000004E-02  0.152593300      -2.16755178E-03  0.152608693    
   1.68750000       7.50000030E-02  0.425301522      -5.44576719E-03  0.425336391    
   1.68750000      0.125000000      0.647049248      -6.87841512E-03  0.647085845    
   1.68750000      0.175000012      0.802854180      -7.07692374E-03  0.802885354    
   1.68750000      0.224999994      0.897521794      -6.58319518E-03  0.897545934    
   1.68750000      0.275000006      0.948026836      -5.71088679E-03  0.948044062    
   1.68750000      0.324999988      0.972064257      -4.64106165E-03  0.972075343    
   1.68750000      0.375000000      0.982400417      -3.47576384E-03  0.982406557    
   1.68750000      0.425000012      0.986427009      -2.26849341E-03  0.986429632    
   1.68750000      0.475000024      0.987749100      -1.04473240E-03  0.987749636    
   1.68750000      0.524999976      0.987750411       1.83338183E-04  0.987750411    
   1.68750000      0.575000048      0.986431122       1.40728988E-03  0.986432135    
   1.68750000      0.625000000      0.982405722       2.61491723E-03  0.982409239    
   1.68750000      0.675000012      0.972066820       3.78055731E-03  0.972074211    
   1.68750000      0.725000024      0.948019505       4.85091098E-03  0.948031962    
   1.68750000      0.774999976      0.897493124       5.72413765E-03  0.897511363    
   1.68750000      0.825000048      0.802791595       6.21948205E-03  0.802815676    
   1.68750000      0.875000000      0.646950006       6.02510804E-03  0.646978080    
   1.68750000      0.925000012      0.425191641       4.61159460E-03  0.425216645    
   1.68750000      0.975000024      0.152545929       1.75850652E-03  0.152556062    
   1.68750000       1.00000000       0.00000000       0.00000000       0.00000000    
   1.81250000       0.00000000       0.00000000       0.00000000       0.00000000    
   1.81250000       2.50000004E-02  0.148788512      -2.15443247E-03  0.148804113    
   1.81250000       7.50000030E-02  0.415115237      -5.41768968E-03  0.415150613    
   1.81250000      0.125000000      0.632954717      -6.85252715E-03  0.632991791    
   1.81250000      0.175000012      0.786543012      -7.05926307E-03  0.786574662    
   1.81250000      0.224999994      0.879976988      -6.57194667E-03  0.880001545    
   1.81250000      0.275000006      0.929822206      -5.70269348E-03  0.929839671    
   1.81250000      0.324999988      0.953531682      -4.63436963E-03  0.953542948    
   1.81250000      0.375000000      0.963718891      -3.46987578E-03  0.963725150    
   1.81250000      0.425000012      0.967684865      -2.26281118E-03  0.967687488    
   1.81250000      0.475000024      0.968986273      -1.03930163E-03  0.968986809    
   1.81250000      0.524999976      0.968987823       1.88171369E-04  0.968987882    
   1.81250000      0.575000048      0.967689276       1.41130725E-03  0.967690289    
   1.81250000      0.625000000      0.963724494       2.61817453E-03  0.963728011    
   1.81250000      0.675000012      0.953534603       3.78298713E-03  0.953542113    
   1.81250000      0.725000024      0.929815531       4.85166721E-03  0.929828167    
   1.81250000      0.774999976      0.879949450       5.72148431E-03  0.879968047    