 TITLE= "TESTPLOT" 
 VARIABLES="x","y","fx","fy","magf" 
 ZONE T="1", I=          81 , J=          21
   0.00000000       0.00000000       1.00000000       0.00000000       1.00000000    
   0.00000000       2.50000004E-02   1.00000000       0.00000000       1.00000000    
   0.00000000       7.50000030E-02   1.00000000       0.00000000       1.00000000    
   0.00000000      0.125000000       1.00000000       0.00000000       1.00000000    
   0.00000000      0.175000012       1.00000000       0.00000000       1.00000000    
   0.00000000      0.224999994       1.00000000       0.00000000       1.00000000    
   0.00000000      0.275000006       1.00000000       0.00000000       1.00000000    
   0.00000000      0.324999988       1.00000000       0.00000000       1.00000000    
   0.00000000      0.375000000       1.00000000       0.00000000       1.00000000    
   0.00000000      0.425000012       1.00000000       0.00000000       1.00000000    
   0.00000000      0.475000024       1.00000000       0.00000000       1.00000000    
   0.00000000      0.524999976       1.00000000       0.00000000       1.00000000    
   0.00000000      0.575000048       1.00000000       0.00000000       1.00000000    
   0.00000000      0.625000000       1.00000000       0.00000000       1.00000000    
   0.00000000      0.675000012       1.00000000       0.00000000       1.00000000    
   0.00000000      0.725000024       1.00000000       0.00000000       1.00000000    
   0.00000000      0.774999976       1.00000000       0.00000000       1.00000000    
   0.00000000      0.825000048       1.00000000       0.00000000       1.00000000    
   0.00000000      0.875000000       1.00000000       0.00000000       1.00000000    
   0.00000000      0.925000012       1.00000000       0.00000000       1.00000000    
   0.00000000      0.975000024       1.00000000       0.00000000       1.00000000    
   0.00000000       1.00000000       1.00000000       0.00000000       1.00000000    
   6.25000000E-02   0.00000000      0.500000000       0.00000000      0.500000000    
   6.25000000E-02   2.50000004E-02  0.716566443      0.111182898      0.725140750    
   6.25000000E-02   7.50000030E-02  0.920387149      0.251855195      0.954224050    
   6.25000000E-02  0.125000000       1.01122999      0.274500549       1.04782474    
   6.25000000E-02  0.175000012       1.04611349      0.246860862       1.07484591    
   6.25000000E-02  0.224999994       1.05429363      0.201998070       1.07347023    
   6.25000000E-02  0.275000006       1.05099082      0.155185014       1.06238604    
   6.25000000E-02  0.324999988       1.04398191      0.112496734       1.05002558    
   6.25000000E-02  0.375000000       1.03705215       7.53840059E-02   1.03978837    
   6.25000000E-02  0.425000012       1.03190565       4.31018248E-02   1.03280544    
   6.25000000E-02  0.475000024       1.02922451       1.39506496E-02   1.02931905    
   6.25000000E-02  0.524999976       1.02923036      -1.41303334E-02   1.02932739    
   6.25000000E-02  0.575000048       1.03192341      -4.32908386E-02   1.03283107    
   6.25000000E-02  0.625000000       1.03708291      -7.55923316E-02   1.03983426    
   6.25000000E-02  0.675000012       1.04402709     -0.112735033       1.05009604    
   6.25000000E-02  0.725000024       1.05105233     -0.155465320       1.06248784    
   6.25000000E-02  0.774999976       1.05437136     -0.202333301       1.07360971    
   6.25000000E-02  0.825000048       1.04620552     -0.247262686       1.07502782    
   6.25000000E-02  0.875000000       1.01132989     -0.274975717       1.04804564    
   6.25000000E-02  0.925000012      0.920482337     -0.252393484      0.954458058    
   6.25000000E-02  0.975000024      0.716632545     -0.111464873      0.725249350    
   6.25000000E-02   1.00000000      0.500000000       0.00000000      0.500000000    
  0.187500000       0.00000000       0.00000000       0.00000000       0.00000000    
  0.187500000       2.50000004E-02  0.339141756       3.53857540E-02  0.340982825    
  0.187500000       7.50000030E-02  0.731005073      0.112298563      0.739580512    
  0.187500000      0.125000000      0.949391603      0.180675194      0.966430545    
  0.187500000      0.175000012       1.06277919      0.216927439       1.08469212    
  0.187500000      0.224999994       1.11452723      0.221578240       1.13633966    
  0.187500000      0.275000006       1.13214159      0.202386901       1.15008914    
  0.187500000      0.324999988       1.13276553      0.167651147       1.14510465    
  0.187500000      0.375000000       1.12676835      0.123913676       1.13356149    
  0.187500000      0.425000012       1.12016165       7.55566284E-02   1.12270701    
  0.187500000      0.475000024       1.11617148       2.51764152E-02   1.11645532    
  0.187500000      0.524999976       1.11618948      -2.57548727E-02   1.11648655    
  0.187500000      0.575000048       1.12021554      -7.61446804E-02   1.12280047    
  0.187500000      0.625000000       1.12685776     -0.124519743       1.13371670    
  0.187500000      0.675000012       1.13288891     -0.168281317       1.14531910    
  0.187500000      0.725000024       1.13229728     -0.203043237       1.15035808    
  0.187500000      0.774999976       1.11470842     -0.222257286       1.13664997    
  0.187500000      0.825000048       1.06297541     -0.217619866       1.08502305    
  0.187500000      0.875000000      0.949585676     -0.181366429      0.966750622    
  0.187500000      0.925000012      0.731172383     -0.112963453      0.739847183    
  0.187500000      0.975000024      0.339246511      -3.57074700E-02  0.341120541    
  0.187500000       1.00000000       0.00000000       0.00000000       0.00000000    
  0.312500000       0.00000000       0.00000000       0.00000000       0.00000000    
  0.312500000       2.50000004E-02  0.213679731       1.03764813E-02  0.213931531    
  0.312500000       7.50000030E-02  0.560501099       4.26646397E-02  0.562122524    
  0.312500000      0.125000000      0.815744281       8.64287093E-02  0.820310056    
  0.312500000      0.175000012      0.989895940      0.123277634      0.997542679    
  0.312500000      0.224999994       1.10050344      0.143882588       1.10986936    
  0.312500000      0.275000006       1.16539168      0.145878077       1.17448628    
  0.312500000      0.324999988       1.19989109      0.130958870       1.20701659    
  0.312500000      0.375000000       1.21596313      0.102663577       1.22028935    
  0.312500000      0.425000012       1.22217631       6.50322288E-02   1.22390532    
  0.312500000      0.475000024       1.22397852       2.19794661E-02   1.22417593    
  0.312500000      0.524999976       1.22400236      -2.28411574E-02   1.22421551    
  0.312500000      0.575000048       1.22224617      -6.58928603E-02   1.22402108    
  0.312500000      0.625000000       1.21607423     -0.103520915       1.22047246    
  0.312500000      0.675000012       1.20003414     -0.131808400       1.20725119    
  0.312500000      0.725000024       1.16555619     -0.146712512       1.17475355    
  0.312500000      0.774999976       1.10067368     -0.144692093       1.11014342    
  0.312500000      0.825000048      0.990055919     -0.124051549      0.997797310    
  0.312500000      0.875000000      0.815878630      -8.71580392E-02  0.820520878    
  0.312500000      0.925000012      0.560597420      -4.33381312E-02  0.562270105    
  0.312500000      0.975000024      0.213731706      -1.06973955E-02  0.213999242    
  0.312500000       1.00000000       0.00000000       0.00000000       0.00000000    
  0.437500000       0.00000000       0.00000000       0.00000000       0.00000000    
  0.437500000       2.50000004E-02  0.169482842       2.87724799E-03  0.169507265    
  0.437500000       7.50000030E-02  0.469602704       1.54364537E-02  0.469856352    
  0.437500000      0.125000000      0.718779564       3.72918509E-02  0.719746292    
  0.437500000      0.175000012      0.914013147       6.00646548E-02  0.915984571    
  0.437500000      0.224999994       1.05888855       7.69455507E-02   1.06168056    
  0.437500000      0.275000006       1.16078830       8.39260295E-02   1.16381836    
  0.437500000      0.324999988       1.22855377       7.97112584E-02   1.23113692    
  0.437500000      0.375000000       1.27077317       6.51077330E-02   1.27243996    
  0.437500000      0.425000012       1.29464257       4.23190221E-02   1.29533410    
  0.437500000      0.475000024       1.30526853       1.43598868E-02   1.30534756    
  0.437500000      0.524999976       1.30528581      -1.53581928E-02   1.30537617    
  0.437500000      0.575000048       1.29469085      -4.33072932E-02   1.29541492    
  0.437500000      0.625000000       1.27084494      -6.60751611E-02   1.27256155    
  0.437500000      0.675000012       1.22863781      -8.06471556E-02   1.23128176    
  0.437500000      0.725000024       1.16087115      -8.48203376E-02   1.16396582    
  0.437500000      0.774999976       1.05895591      -7.77893141E-02   1.06180918    
  0.437500000      0.825000048      0.914055347      -6.08518943E-02  0.916078687    
  0.437500000      0.875000000      0.718795896      -3.80214453E-02  0.719800830    
  0.437500000      0.925000012      0.469602644      -1.61061455E-02  0.469878763    
  0.437500000      0.975000024      0.169488594      -3.19634820E-03  0.169518739    
  0.437500000       1.00000000       0.00000000       0.00000000       0.00000000    
  0.562500000       0.00000000       0.00000000       0.00000000       0.00000000    
  0.562500000       2.50000004E-02  0.150898471       1.28440035E-04  0.150898531    
  0.562500000       7.50000030E-02  0.424211055       3.96249350E-03  0.424229562    
  0.562500000      0.125000000      0.661999702       1.34430937E-02  0.662136197    
  0.562500000      0.175000012      0.860893905       2.51056235E-02  0.861259937    
  0.562500000      0.224999994       1.02058411       3.52739468E-02   1.02119350    
  0.562500000      0.275000006       1.14332414       4.10827063E-02   1.14406204    
  0.562500000      0.324999988       1.23313761       4.09325510E-02   1.23381674    
  0.562500000      0.375000000       1.29482102       3.45670059E-02   1.29528236    
  0.562500000      0.425000012       1.33295083       2.28970088E-02   1.33314753    
  0.562500000      0.475000024       1.35105991       7.69980997E-03   1.35108185    
  0.562500000      0.524999976       1.35106206      -8.72575305E-03   1.35109019    
  0.562500000      0.575000048       1.33295226      -2.39083655E-02   1.33316672    
  0.562500000      0.625000000       1.29481602      -3.55501249E-02   1.29530394    
  0.562500000      0.675000012       1.23311853      -4.18755487E-02   1.23382938    
  0.562500000      0.725000024       1.14328122      -4.19758447E-02   1.14405155    
  0.562500000      0.774999976       1.02051282      -3.61107513E-02   1.02115154    
  0.562500000      0.825000048      0.860796452      -2.58840304E-02  0.861185551    
  0.562500000      0.875000000      0.661890745      -1.41654247E-02  0.662042320    
  0.562500000      0.925000012      0.424119681      -4.62831324E-03  0.424144953    
  0.562500000      0.975000024      0.150865704      -4.46565769E-04  0.150866359    
  0.562500000       1.00000000       0.00000000       0.00000000       0.00000000    
  0.687500000       0.00000000       0.00000000       0.00000000       0.00000000    
  0.687500000       2.50000004E-02  0.142095238      -1.03953527E-03  0.142099038    
  0.687500000       7.50000030E-02  0.400883883      -1.22754648E-03  0.400885761    
  0.687500000      0.125000000      0.629952073       1.90019654E-03  0.629954934    
  0.687500000      0.175000012      0.827234745       6.98740408E-03  0.827264249    
  0.687500000      0.224999994      0.991905928       1.22252088E-02  0.991981268    
  0.687500000      0.275000006       1.12433290       1.59577392E-02   1.12444615    
  0.687500000      0.324999988       1.22600031       1.70338489E-02   1.22611868    
  0.687500000      0.375000000       1.29914355       1.49999345E-02   1.29923010    
  0.687500000      0.425000012       1.34618044       1.01234745E-02   1.34621847    
  0.687500000      0.475000024       1.36912346       3.27759935E-03   1.36912739    
  0.687500000      0.524999976       1.36910725      -4.26589930E-03   1.36911392    
  0.687500000      0.575000048       1.34612882      -1.10973874E-02   1.34617460    
  0.687500000      0.625000000       1.29905319      -1.59466006E-02   1.29915106    
  0.687500000      0.675000012       1.22586954      -1.79420598E-02   1.22600079    
  0.687500000      0.725000024       1.12416005      -1.68194920E-02   1.12428582    
  0.687500000      0.774999976      0.991697311      -1.30358469E-02  0.991783023    
  0.687500000      0.825000048      0.827006340      -7.74616469E-03  0.827042639    
  0.687500000      0.875000000      0.629731834      -2.61066854E-03  0.629737258    
  0.687500000      0.925000012      0.400714636       5.66439820E-04  0.400715053    
  0.687500000      0.975000024      0.142031372       7.22306955E-04  0.142033204    
  0.687500000       1.00000000       0.00000000       0.00000000       0.00000000    
  0.812500000       0.00000000       0.00000000       0.00000000       0.00000000    
  0.812500000       2.50000004E-02  0.137502223      -1.56076858E-03  0.137511089    
  0.812500000       7.50000030E-02  0.388056725      -3.62124969E-03  0.388073623    
  0.812500000      0.125000000      0.611082077      -3.62233585E-03  0.611092806    
  0.812500000      0.175000012      0.805526972      -2.02206499E-03  0.805529535    
  0.812500000      0.224999994      0.970816076       3.19636514E-04  0.970816135    
  0.812500000      0.275000006       1.10675788       2.51572509E-03   1.10676074    
  0.812500000      0.324999988       1.21369290       3.85625055E-03   1.21369910    
  0.812500000      0.375000000       1.29245186       3.95340612E-03   1.29245794    
  0.812500000      0.425000012       1.34410608       2.79956916E-03   1.34410906    
  0.812500000      0.475000024       1.36962974       7.35808979E-04   1.36962998    
  0.812500000      0.524999976       1.36959672      -1.65569445E-03   1.36959767    
  0.812500000      0.575000048       1.34400642      -3.70740099E-03   1.34401155    
  0.812500000      0.625000000       1.29228568      -4.83837212E-03   1.29229474    
  0.812500000      0.675000012       1.21346402      -4.70986869E-03   1.21347320    
  0.812500000      0.725000024       1.10647345      -3.33191524E-03   1.10647845    
  0.812500000      0.774999976      0.970492244      -1.09519868E-03  0.970492840    
  0.812500000      0.825000048      0.805190802       1.28711748E-03  0.805191875    
  0.812500000      0.875000000      0.610772491       2.92551843E-03  0.610779464    
  0.812500000      0.925000012      0.387826145       2.96577578E-03  0.387837470    
  0.812500000      0.975000024      0.137414813       1.24458806E-03  0.137420461    
  0.812500000       1.00000000       0.00000000       0.00000000       0.00000000    
  0.937500000       0.00000000       0.00000000       0.00000000       0.00000000    
  0.937500000       2.50000004E-02  0.134771198      -1.78973877E-03  0.134783074    
  0.937500000       7.50000030E-02  0.380142629      -4.69906116E-03  0.380171686    
  0.937500000      0.125000000      0.598774552      -6.17343280E-03  0.598806381    
  0.937500000      0.175000012      0.790246010      -6.29403535E-03  0.790271103    
  0.937500000      0.224999994      0.954305768      -5.47105679E-03  0.954321444    
  0.937500000      0.275000006       1.09066677      -4.17651329E-03   1.09067476    
  0.937500000      0.324999988       1.19921041      -2.83665629E-03   1.19921374    
  0.937500000      0.375000000       1.28008842      -1.74422038E-03   1.28008962    
  0.937500000      0.425000012       1.33365393      -1.01295288E-03   1.33365428    
  0.937500000      0.475000024       1.36029065      -5.81485045E-04   1.36029077    
  0.937500000      0.524999976       1.36024427      -2.62100366E-04   1.36024427    
  0.937500000      0.575000048       1.33351576       1.78116185E-04   1.33351576    
  0.937500000      0.625000000       1.27986288       9.25843662E-04   1.27986324    
  0.937500000      0.675000012       1.19890571       2.04112846E-03   1.19890749    
  0.937500000      0.725000024       1.09029794       3.40816192E-03   1.09030318    
  0.937500000      0.774999976      0.953896165       4.73185349E-03  0.953907907    
  0.937500000      0.825000048      0.789830208       5.58391493E-03  0.789849937    
  0.937500000      0.875000000      0.598399401       5.49078640E-03  0.598424613    
  0.937500000      0.925000012      0.379867762       4.04920988E-03  0.379889339    
  0.937500000      0.975000024      0.134667128       1.47462368E-03  0.134675190    
  0.937500000       1.00000000       0.00000000       0.00000000       0.00000000    
   1.06250000       0.00000000       0.00000000       0.00000000       0.00000000    
   1.06250000       2.50000004E-02  0.132833093      -1.88401563E-03  0.132846460    
   1.06250000       7.50000030E-02  0.374427199      -5.15399827E-03  0.374462664    
   1.06250000      0.125000000      0.589539289      -7.27701001E-03  0.589584172    
   1.06250000      0.175000012      0.778130293      -8.18541646E-03  0.778173327    
   1.06250000      0.224999994      0.940211833      -8.09002295E-03  0.940246642    
   1.06250000      0.275000006       1.07554281      -7.26080360E-03   1.07556725    
   1.06250000      0.324999988       1.18385005      -5.96959237E-03   1.18386507    
   1.06250000      0.375000000       1.26499236      -4.44174651E-03   1.26500010    
   1.06250000      0.425000012       1.31898212      -2.82780686E-03   1.31898510    
   1.06250000      0.475000024       1.34591043      -1.20036653E-03   1.34591103    
   1.06250000      0.524999976       1.34585476       4.26304905E-04   1.34585488    
   1.06250000      0.575000048       1.31881714       2.05931859E-03   1.31881881    
   1.06250000      0.625000000       1.26472509       3.68390535E-03   1.26473045    
   1.06250000      0.675000012       1.18349338       5.22659859E-03   1.18350494    
   1.06250000      0.725000024       1.07511663       6.53507281E-03   1.07513654    
   1.06250000      0.774999976      0.939744353       7.38257822E-03  0.939773321    
   1.06250000      0.825000048      0.777661681       7.49644591E-03  0.777697802    
   1.06250000      0.875000000      0.589121222       6.60613552E-03  0.589158237    
   1.06250000      0.925000012      0.374123842       4.50866250E-03  0.374150991    
   1.06250000      0.975000024      0.132718265       1.56964350E-03  0.132727548    
   1.06250000       1.00000000       0.00000000       0.00000000       0.00000000    
   1.18750000       0.00000000       0.00000000       0.00000000       0.00000000    
   1.18750000       2.50000004E-02  0.131198585      -1.91809889E-03  0.131212607    
   1.18750000       7.50000030E-02  0.369612634      -5.32361213E-03  0.369650990    
   1.18750000      0.125000000      0.581624746      -7.70156318E-03  0.581675708    
   1.18750000      0.175000012      0.767438471      -8.93487595E-03  0.767490447    
   1.18750000      0.224999994      0.927263737      -9.15469602E-03  0.927308917    
   1.18750000      0.275000006       1.06093812      -8.54115747E-03   1.06097257    
   1.18750000      0.324999988       1.16815770      -7.29105342E-03   1.16818047    
   1.18750000      0.375000000       1.24867296      -5.59154199E-03   1.24868548    
   1.18750000      0.425000012       1.30235410      -3.60366935E-03   1.30235910    
   1.18750000      0.475000024       1.32916284      -1.45784451E-03   1.32916367    
   1.18750000      0.524999976       1.32910132       7.38677976E-04   1.32910156    
   1.18750000      0.575000048       1.30217254       2.88742315E-03   1.30217576    
   1.18750000      0.625000000       1.24838066       4.88114869E-03   1.24839020    
   1.18750000      0.675000012       1.16776991       6.58863876E-03   1.16778851    
   1.18750000      0.725000024       1.06047750       7.84830470E-03   1.06050658    
   1.18750000      0.774999976      0.926761985       8.47217068E-03  0.926800728    
   1.18750000      0.825000048      0.766939640       8.26251507E-03  0.766984105    
   1.18750000      0.875000000      0.581182837       7.03948503E-03  0.581225455    
   1.18750000      0.925000012      0.369293839       4.68109827E-03  0.369323522    
   1.18750000      0.975000024      0.131077677       1.60397775E-03  0.131087482    
   1.18750000       1.00000000       0.00000000       0.00000000       0.00000000    
   1.31250000       0.00000000       0.00000000       0.00000000       0.00000000    
   1.31250000       2.50000004E-02  0.129653603      -1.92761514E-03  0.129667923    
   1.31250000       7.50000030E-02  0.365106255      -5.37277292E-03  0.365145802    
   1.31250000      0.125000000      0.574200332      -7.83153810E-03  0.574253738    
   1.31250000      0.175000012      0.757308304      -9.17696394E-03  0.757363915    
   1.31250000      0.224999994      0.914793193      -9.51379910E-03  0.914842665    
   1.31250000      0.275000006       1.04657185      -8.98751989E-03   1.04661047    
   1.31250000      0.324999988       1.15235293      -7.76313711E-03   1.15237904    
   1.31250000      0.375000000       1.23185825      -6.00855052E-03   1.23187292    
   1.31250000      0.425000012       1.28490710      -3.88539326E-03   1.28491306    
   1.31250000      0.475000024       1.31141269      -1.54615589E-03   1.31141365    
   1.31250000      0.524999976       1.31134868       8.64658563E-04   1.31134892    
   1.31250000      0.575000048       1.28471756       3.20542627E-03   1.28472161    
   1.31250000      0.625000000       1.23155379       5.33108693E-03   1.23156524    
   1.31250000      0.675000012       1.15195060       7.08892709E-03   1.15197241    
   1.31250000      0.725000024       1.04609513       8.31705146E-03   1.04612815    
   1.31250000      0.774999976      0.914276540       8.84738192E-03  0.914319336    
   1.31250000      0.825000048      0.756796956       8.51503946E-03  0.756844819    
   1.31250000      0.875000000      0.573749423       7.17507722E-03  0.573794305    
   1.31250000      0.925000012      0.364782333       4.73209796E-03  0.364813030    
   1.31250000      0.975000024      0.129530847       1.61360158E-03  0.129540890    
   1.31250000       1.00000000       0.00000000       0.00000000       0.00000000    
   1.43750000       0.00000000       0.00000000       0.00000000       0.00000000    
   1.43750000       2.50000004E-02  0.128114268      -1.92880002E-03  0.128128782    
   1.43750000       7.50000030E-02  0.360660136      -5.37819974E-03  0.360700250    
   1.43750000      0.125000000      0.566903114      -7.84924254E-03  0.566957474    
   1.43750000      0.175000012      0.747346878      -9.21890233E-03  0.747403741    
   1.43750000      0.224999994      0.902480721      -9.58726183E-03  0.902531624    
   1.43750000      0.275000006       1.03229249      -9.08960216E-03   1.03233254    
   1.43750000      0.324999988       1.13651514      -7.87910540E-03   1.13654244    
   1.43750000      0.375000000       1.21487021      -6.11504028E-03   1.21488559    
   1.43750000      0.425000012       1.26716435      -3.95728648E-03   1.26717055    
   1.43750000      0.475000024       1.29329681      -1.56441727E-03   1.29329777    
   1.43750000      0.524999976       1.29323196       9.06516158E-04   1.29323232    
   1.43750000      0.575000048       1.26697242       3.29927984E-03   1.26697671    
   1.43750000      0.625000000       1.21456265       5.45717869E-03   1.21457493    
   1.43750000      0.675000012       1.13610911       7.22162193E-03   1.13613200    
   1.43750000      0.725000024       1.03181243       8.43243580E-03   1.03184688    
   1.43750000      0.774999976      0.901962399       8.93040933E-03  0.902006626    
   1.43750000      0.825000048      0.746835113       8.56279582E-03  0.746884167    
   1.43750000      0.875000000      0.566453159       7.19545968E-03  0.566498876    
   1.43750000      0.925000012      0.360337824       4.73790942E-03  0.360368967    
   1.43750000      0.975000024      0.127992749       1.61453057E-03  0.128002927    
   1.43750000       1.00000000       0.00000000       0.00000000       0.00000000    
   1.56250000       0.00000000       0.00000000       0.00000000       0.00000000    
   1.56250000       2.50000004E-02  0.126555383      -1.92837638E-03  0.126570076    
   1.56250000       7.50000030E-02  0.356187165      -5.37278783E-03  0.356227666    
   1.56250000      0.125000000      0.559595585      -7.83542264E-03  0.559650421    
   1.56250000      0.175000012      0.737396479      -9.20001231E-03  0.737453878    
   1.56250000      0.224999994      0.890190601      -9.56883654E-03  0.890241981    
   1.56250000      0.275000006       1.01802754      -9.07608122E-03   1.01806796    
   1.56250000      0.324999988       1.12066591      -7.87171908E-03   1.12069356    
   1.56250000      0.375000000       1.19783390      -6.11195248E-03   1.19784939    
   1.56250000      0.425000012       1.24933839      -3.95516166E-03   1.24934471    
   1.56250000      0.475000024       1.27507710      -1.56024471E-03   1.27507806    
   1.56250000      0.524999976       1.27501261       9.13962722E-04   1.27501297    
   1.56250000      0.575000048       1.24914753       3.30858398E-03   1.24915195    
   1.56250000      0.625000000       1.19752777       5.46451006E-03   1.19754016    
   1.56250000      0.675000012       1.12026227       7.22271809E-03   1.12028563    
   1.56250000      0.725000024       1.01755118       8.42508674E-03   1.01758599    
   1.56250000      0.774999976      0.889677048       8.91588163E-03  0.889721751    
   1.56250000      0.825000048      0.736890197       8.54573958E-03  0.736939728    
   1.56250000      0.875000000      0.559151053       7.18183629E-03  0.559197187    
   1.56250000      0.925000012      0.355869055       4.73165093E-03  0.355900496    
   1.56250000      0.975000024      0.126435533       1.61349203E-03  0.126445830    
   1.56250000       1.00000000       0.00000000       0.00000000       0.00000000    
   1.68750000       0.00000000       0.00000000       0.00000000       0.00000000    
   1.68750000       2.50000004E-02  0.124972828      -1.92897196E-03  0.124987714    
   1.68750000       7.50000030E-02  0.351665676      -5.36923390E-03  0.351706654    
   1.68750000      0.125000000      0.552237093      -7.82089867E-03  0.552292466    
   1.68750000      0.175000012      0.727405429      -9.17422120E-03  0.727463305    
   1.68750000      0.224999994      0.877873361      -9.53531079E-03  0.877925158    
   1.68750000      0.275000006       1.00374615      -9.03989188E-03   1.00378692    
   1.68750000      0.324999988       1.10480523      -7.83786923E-03   1.10483301    
   1.68750000      0.375000000       1.18078637      -6.08434156E-03   1.18080211    
   1.68750000      0.425000012       1.23149896      -3.93661065E-03   1.23150527    
   1.68750000      0.475000024       1.25684202      -1.55246770E-03   1.25684297    
   1.68750000      0.524999976       1.25677860       9.10347968E-04   1.25677896    
   1.68750000      0.575000048       1.23131084       3.29385605E-03   1.23131526    
   1.68750000      0.625000000       1.18048429       5.43994782E-03   1.18049681    
   1.68750000      0.675000012       1.10440731       7.19096325E-03   1.10443068    
   1.68750000      0.725000024       1.00327682       8.39003548E-03   1.00331187    
   1.68750000      0.774999976      0.877367735       8.88230279E-03  0.877412677    
   1.68750000      0.825000048      0.726907432       8.51898640E-03  0.726957381    
   1.68750000      0.875000000      0.551800311       7.16588227E-03  0.551846862    
   1.68750000      0.925000012      0.351353288       4.72641876E-03  0.351385057    
   1.68750000      0.975000024      0.124855295       1.61322765E-03  0.124865711    
   1.68750000       1.00000000       0.00000000       0.00000000       0.00000000    
   1.81250000       0.00000000       0.00000000       0.00000000       0.00000000    
   1.81250000       2.50000004E-02  0.123370059      -1.93037419E-03  0.123385161    
   1.81250000       7.50000030E-02  0.347097635      -5.36901830E-03  0.347139150    
   1.81250000      0.125000000      0.544824243      -7.81267416E-03  0.544880271    
   1.81250000      0.175000012      0.717363954      -9.15659592E-03  0.717422426    
   1.81250000      0.224999994      0.865515411      -9.51042585E-03  0.865567625    
   1.81250000      0.275000006      0.989435852      -9.01129656E-03  0.989476860    
   1.81250000      0.324999988       1.08892703      -7.80980941E-03   1.08895504    
   1.81250000      0.375000000       1.16373038      -6.06110971E-03   1.16374612    
   1.81250000      0.425000012       1.21365786      -3.92146222E-03   1.21366417    
   1.81250000      0.475000024       1.23860848      -1.54734519E-03   1.23860943    
   1.81250000      0.524999976       1.23854589       9.04674525E-04   1.23854625    
   1.81250000      0.575000048       1.21347284       3.27782845E-03   1.21347725    
   1.81250000      0.625000000       1.16343403       5.41566499E-03   1.16344666    
   1.81250000      0.675000012       1.08853638       7.16180773E-03   1.08855999    
   1.81250000      0.725000024      0.988975525       8.36022478E-03  0.989010870    
   1.81250000      0.774999976      0.865019679       8.85621086E-03  0.865065038    