 TITLE= "TESTPLOT" 
 VARIABLES="x","y","fx","fy","magf" 
 ZONE T="1", I=          81 , J=          21
   0.00000000       0.00000000       1.00000000       0.00000000       1.00000000    
   0.00000000       2.50000004E-02   1.00000000       0.00000000       1.00000000    
   0.00000000       7.50000030E-02   1.00000000       0.00000000       1.00000000    
   0.00000000      0.125000000       1.00000000       0.00000000       1.00000000    
   0.00000000      0.175000012       1.00000000       0.00000000       1.00000000    
   0.00000000      0.224999994       1.00000000       0.00000000       1.00000000    
   0.00000000      0.275000006       1.00000000       0.00000000       1.00000000    
   0.00000000      0.324999988       1.00000000       0.00000000       1.00000000    
   0.00000000      0.375000000       1.00000000       0.00000000       1.00000000    
   0.00000000      0.425000012       1.00000000       0.00000000       1.00000000    
   0.00000000      0.475000024       1.00000000       0.00000000       1.00000000    
   0.00000000      0.524999976       1.00000000       0.00000000       1.00000000    
   0.00000000      0.575000048       1.00000000       0.00000000       1.00000000    
   0.00000000      0.625000000       1.00000000       0.00000000       1.00000000    
   0.00000000      0.675000012       1.00000000       0.00000000       1.00000000    
   0.00000000      0.725000024       1.00000000       0.00000000       1.00000000    
   0.00000000      0.774999976       1.00000000       0.00000000       1.00000000    
   0.00000000      0.825000048       1.00000000       0.00000000       1.00000000    
   0.00000000      0.875000000       1.00000000       0.00000000       1.00000000    
   0.00000000      0.925000012       1.00000000       0.00000000       1.00000000    
   0.00000000      0.975000024       1.00000000       0.00000000       1.00000000    
   0.00000000       1.00000000       1.00000000       0.00000000       1.00000000    
   6.25000000E-02   0.00000000      0.500000000       0.00000000      0.500000000    
   6.25000000E-02   2.50000004E-02  0.716381192      0.111083582      0.724942446    
   6.25000000E-02   7.50000030E-02  0.919971943      0.251636267      0.953765810    
   6.25000000E-02  0.125000000       1.01073027      0.274275124       1.04728341    
   6.25000000E-02  0.175000012       1.04560173      0.246668264       1.07430363    
   6.25000000E-02  0.224999994       1.05378938      0.201840550       1.07294536    
   6.25000000E-02  0.275000006       1.05049407      0.155056849       1.06187594    
   6.25000000E-02  0.324999988       1.04348922      0.112393677       1.04952466    
   6.25000000E-02  0.375000000       1.03656065       7.53042102E-02   1.03929234    
   6.25000000E-02  0.425000012       1.03141356       4.30451185E-02   1.03231144    
   6.25000000E-02  0.475000024       1.02873194       1.39171714E-02   1.02882612    
   6.25000000E-02  0.524999976       1.02873850      -1.41408388E-02   1.02883565    
   6.25000000E-02  0.575000048       1.03143215      -4.32784744E-02   1.03233969    
   6.25000000E-02  0.625000000       1.03659177      -7.55569860E-02   1.03934181    
   6.25000000E-02  0.675000012       1.04353499     -0.112676725       1.04960060    
   6.25000000E-02  0.725000024       1.05055690     -0.155382529       1.06198561    
   6.25000000E-02  0.774999976       1.05386817     -0.202221364       1.07309437    
   6.25000000E-02  0.825000048       1.04569530     -0.247115538       1.07449746    
   6.25000000E-02  0.875000000       1.01083338     -0.274796426       1.04751956    
   6.25000000E-02  0.925000012      0.920070529     -0.252221167      0.954015374    
   6.25000000E-02  0.975000024      0.716451287     -0.111388810      0.725058556    
   6.25000000E-02   1.00000000      0.500000000       0.00000000      0.500000000    
  0.187500000       0.00000000       0.00000000       0.00000000       0.00000000    
  0.187500000       2.50000004E-02  0.338618100       3.52731720E-02  0.340450317    
  0.187500000       7.50000030E-02  0.729764581      0.112049878      0.738316715    
  0.187500000      0.125000000      0.947876811      0.180421993      0.964895129    
  0.187500000      0.175000012       1.06122112      0.216720074       1.08312416    
  0.187500000      0.224999994       1.11299634      0.221419811       1.13480723    
  0.187500000      0.275000006       1.13064134      0.202266544       1.14859116    
  0.187500000      0.324999988       1.13128412      0.167558506       1.14362562    
  0.187500000      0.375000000       1.12529600      0.123842269       1.13209009    
  0.187500000      0.425000012       1.11869180       7.55028352E-02   1.12123692    
  0.187500000      0.475000024       1.11470222       2.51380280E-02   1.11498570    
  0.187500000      0.524999976       1.11472130      -2.57785488E-02   1.11501932    
  0.187500000      0.575000048       1.11874700      -7.61526972E-02   1.12133574    
  0.187500000      0.625000000       1.12538600     -0.124510303       1.13225281    
  0.187500000      0.675000012       1.13140881     -0.168250665       1.14385056    
  0.187500000      0.725000024       1.13079870     -0.202983886       1.14887249    
  0.187500000      0.774999976       1.11317885     -0.222158581       1.13513064    
  0.187500000      0.825000048       1.06141937     -0.217470944       1.08346891    
  0.187500000      0.875000000      0.948074460     -0.181169659      0.965229332    
  0.187500000      0.925000012      0.729936600     -0.112767562      0.738595963    
  0.187500000      0.975000024      0.338728845      -3.56201343E-02  0.340596557    
  0.187500000       1.00000000       0.00000000       0.00000000       0.00000000    
  0.312500000       0.00000000       0.00000000       0.00000000       0.00000000    
  0.312500000       2.50000004E-02  0.212848365       1.02654491E-02  0.213095769    
  0.312500000       7.50000030E-02  0.558435619       4.24224138E-02  0.560044646    
  0.312500000      0.125000000      0.813186169       8.61915275E-02  0.817741275    
  0.312500000      0.175000012      0.987253785      0.123099610      0.994898796    
  0.312500000      0.224999994       1.09791517      0.143766820       1.10728800    
  0.312500000      0.275000006       1.16287339      0.145809829       1.17197907    
  0.312500000      0.324999988       1.19742393      0.130920559       1.20455980    
  0.312500000      0.375000000       1.21352887      0.102639772       1.21786177    
  0.312500000      0.425000012       1.21976089       6.50110617E-02   1.22149217    
  0.312500000      0.475000024       1.22157133       2.19534803E-02   1.22176862    
  0.312500000      0.524999976       1.22159576      -2.28746869E-02   1.22180986    
  0.312500000      0.575000048       1.21983099      -6.59311861E-02   1.22161150    
  0.312500000      0.625000000       1.21363986     -0.103556171       1.21804988    
  0.312500000      0.675000012       1.19756818     -0.131828532       1.20480216    
  0.312500000      0.725000024       1.16303849     -0.146701843       1.17225420    
  0.312500000      0.774999976       1.09808624     -0.144632906       1.10757041    
  0.312500000      0.825000048      0.987414837     -0.123928979      0.995161533    
  0.312500000      0.875000000      0.813321590      -8.69750455E-02  0.817958832    
  0.312500000      0.925000012      0.558533907      -4.31475788E-02  0.560198069    
  0.312500000      0.975000024      0.212903857      -1.06112603E-02  0.213168129    
  0.312500000       1.00000000       0.00000000       0.00000000       0.00000000    
  0.437500000       0.00000000       0.00000000       0.00000000       0.00000000    
  0.437500000       2.50000004E-02  0.168332100       2.77201133E-03  0.168354928    
  0.437500000       7.50000030E-02  0.466686010       1.52158048E-02  0.466933995    
  0.437500000      0.125000000      0.715139270       3.70989852E-02  0.716100931    
  0.437500000      0.175000012      0.910246253       5.99564016E-02  0.912218750    
  0.437500000      0.224999994       1.05521274       7.69213364E-02   1.05801260    
  0.437500000      0.275000006       1.15724301       8.39619264E-02   1.16028488    
  0.437500000      0.324999988       1.22512114       7.97766149E-02   1.22771585    
  0.437500000      0.375000000       1.26742637       6.51722550E-02   1.26910090    
  0.437500000      0.425000012       1.29135346       4.23574746E-02   1.29204786    
  0.437500000      0.475000024       1.30200958       1.43549526E-02   1.30208874    
  0.437500000      0.524999976       1.30202675      -1.54123828E-02   1.30211794    
  0.437500000      0.575000048       1.29140127      -4.34039980E-02   1.29213047    
  0.437500000      0.625000000       1.26749659      -6.61973432E-02   1.26922405    
  0.437500000      0.675000012       1.22520375      -8.07694495E-02   1.22786319    
  0.437500000      0.725000024       1.15732431      -8.49119127E-02   1.16043508    
  0.437500000      0.774999976       1.05527961      -7.78194070E-02   1.05814505    
  0.437500000      0.825000048      0.910288692      -6.07971102E-02  0.912316680    
  0.437500000      0.875000000      0.715155602      -3.78813669E-02  0.716158152    
  0.437500000      0.925000012      0.466686815      -1.59359537E-02  0.466958821    
  0.437500000      0.975000024      0.168340534      -3.11539625E-03  0.168369353    
  0.437500000       1.00000000       0.00000000       0.00000000       0.00000000    
  0.562500000       0.00000000       0.00000000       0.00000000       0.00000000    
  0.562500000       2.50000004E-02  0.149403572       3.12202683E-05  0.149403572    
  0.562500000       7.50000030E-02  0.420388550       3.77365062E-03  0.420405507    
  0.562500000      0.125000000      0.657207847       1.33165354E-02  0.657342732    
  0.562500000      0.175000012      0.855937183       2.50997245E-02  0.856305122    
  0.562500000      0.224999994       1.01577711       3.53814811E-02   1.01639307    
  0.562500000      0.275000006       1.13874340       4.12657633E-02   1.13949084    
  0.562500000      0.324999988       1.22877479       4.11412790E-02   1.22946334    
  0.562500000      0.375000000       1.29064000       3.47511917E-02   1.29110777    
  0.562500000      0.425000012       1.32890034       2.30144896E-02   1.32909954    
  0.562500000      0.475000024       1.34708023       7.72230513E-03   1.34710240    
  0.562500000      0.524999976       1.34708214      -8.80824495E-03   1.34711099    
  0.562500000      0.575000048       1.32890105      -2.40861066E-02   1.32911932    
  0.562500000      0.625000000       1.29063153      -3.57942656E-02   1.29112780    
  0.562500000      0.675000012       1.22875023      -4.21426222E-02   1.22947276    
  0.562500000      0.725000024       1.13869500      -4.22149971E-02   1.13947725    
  0.562500000      0.774999976       1.01570153      -3.62723507E-02   1.01634896    
  0.562500000      0.825000048      0.855836749      -2.59304978E-02  0.856229484    
  0.562500000      0.875000000      0.657096565      -1.40895043E-02  0.657247603    
  0.562500000      0.925000012      0.420296341      -4.48782928E-03  0.420320302    
  0.562500000      0.975000024      0.149372518      -3.72874027E-04  0.149372980    
  0.562500000       1.00000000       0.00000000       0.00000000       0.00000000    
  0.687500000       0.00000000       0.00000000       0.00000000       0.00000000    
  0.687500000       2.50000004E-02  0.140229255      -1.12936948E-03  0.140233800    
  0.687500000       7.50000030E-02  0.396091700      -1.38693862E-03  0.396094114    
  0.687500000      0.125000000      0.623928130       1.83583936E-03  0.623930812    
  0.687500000      0.175000012      0.821012616       7.07903970E-03  0.821043134    
  0.687500000      0.224999994      0.985918164       1.24598090E-02  0.985996902    
  0.687500000      0.275000006       1.11870980       1.62834600E-02   1.11882830    
  0.687500000      0.324999988       1.22075057       1.73823293E-02   1.22087431    
  0.687500000      0.375000000       1.29422092       1.53014027E-02   1.29431140    
  0.687500000      0.425000012       1.34150124       1.03180204E-02   1.34154093    
  0.687500000      0.475000024       1.36457491       3.32528283E-03   1.36457896    
  0.687500000      0.524999976       1.36455810      -4.37905965E-03   1.36456513    
  0.687500000      0.575000048       1.34144545      -1.13568809E-02   1.34149349    
  0.687500000      0.625000000       1.29412353      -1.63114406E-02   1.29422629    
  0.687500000      0.675000012       1.22061014      -1.83517970E-02   1.22074807    
  0.687500000      0.725000024       1.11852646      -1.72035545E-02   1.11865878    
  0.687500000      0.774999976      0.985700190      -1.33257266E-02  0.985790253    
  0.687500000      0.825000048      0.820775509      -7.89057743E-03  0.820813477    
  0.687500000      0.875000000      0.623701096      -2.59675388E-03  0.623706520    
  0.687500000      0.925000012      0.395918787       6.78137585E-04  0.395919383    
  0.687500000      0.975000024      0.140165448       7.89044658E-04  0.140167668    
  0.687500000       1.00000000       0.00000000       0.00000000       0.00000000    
  0.812500000       0.00000000       0.00000000       0.00000000       0.00000000    
  0.812500000       2.50000004E-02  0.135246336      -1.64528470E-03  0.135256350    
  0.812500000       7.50000030E-02  0.382250756      -3.76123143E-03  0.382269263    
  0.812500000      0.125000000      0.603769183      -3.64833395E-03  0.603780210    
  0.812500000      0.175000012      0.797985911      -1.87232404E-03  0.797988117    
  0.812500000      0.224999994      0.963613868       6.28417707E-04  0.963614106    
  0.812500000      0.275000006       1.10009170       2.92455754E-03   1.10009563    
  0.812500000      0.324999988       1.20759487       4.28665848E-03   1.20760250    
  0.812500000      0.375000000       1.28686523       4.32372093E-03   1.28687251    
  0.812500000      0.425000012       1.33890676       3.03922314E-03   1.33891022    
  0.812500000      0.475000024       1.36463881       7.96784298E-04   1.36463904    
  0.812500000      0.524999976       1.36460245      -1.78964087E-03   1.36460364    
  0.812500000      0.575000048       1.33879817      -4.01859824E-03   1.33880424    
  0.812500000      0.625000000       1.28668571      -5.27799875E-03   1.28669655    
  0.812500000      0.675000012       1.20734930      -5.20603778E-03   1.20736051    
  0.812500000      0.725000024       1.09978890      -3.80264572E-03   1.09979546    
  0.812500000      0.774999976      0.963272810      -1.46201567E-03  0.963273942    
  0.812500000      0.825000048      0.797633588       1.08306843E-03  0.797634304    
  0.812500000      0.875000000      0.603446424       2.90067028E-03  0.603453398    
  0.812500000      0.925000012      0.382012010       3.05825588E-03  0.382024258    
  0.812500000      0.975000024      0.135156691       1.30619376E-03  0.135163009    
  0.812500000       1.00000000       0.00000000       0.00000000       0.00000000    
  0.937500000       0.00000000       0.00000000       0.00000000       0.00000000    
  0.937500000       2.50000004E-02  0.132121265      -1.87321089E-03  0.132134542    
  0.937500000       7.50000030E-02  0.373317778      -4.83763730E-03  0.373349130    
  0.937500000      0.125000000      0.590165555      -6.19985908E-03  0.590198159    
  0.937500000      0.175000012      0.781379282      -6.14698231E-03  0.781403422    
  0.937500000      0.224999994      0.945888638      -5.16641699E-03  0.945902765    
  0.937500000      0.275000006       1.08296740      -3.77205573E-03   1.08297396    
  0.937500000      0.324999988       1.19228745      -2.40980461E-03   1.19228983    
  0.937500000      0.375000000       1.27387619      -1.37662177E-03   1.27387691    
  0.937500000      0.425000012       1.32798457      -7.75868946E-04   1.32798481    
  0.937500000      0.475000024       1.35491443      -5.22888149E-04   1.35491455    
  0.937500000      0.524999976       1.35486245      -3.98972072E-04   1.35486245    
  0.937500000      0.575000048       1.32783318      -1.36346061E-04   1.32783318    
  0.937500000      0.625000000       1.27362967       4.83546406E-04   1.27362978    
  0.937500000      0.675000012       1.19195652       1.54333049E-03   1.19195759    
  0.937500000      0.725000024       1.08256888       2.93703820E-03   1.08257282    
  0.937500000      0.774999976      0.945450008       4.36562579E-03  0.945460081    
  0.937500000      0.825000048      0.780937254       5.38096810E-03  0.780955791    
  0.937500000      0.875000000      0.589768648       5.46590239E-03  0.589793980    
  0.937500000      0.925000012      0.373028815       4.14003106E-03  0.373051792    
  0.937500000      0.975000024      0.132012650       1.53512391E-03  0.132021576    
  0.937500000       1.00000000       0.00000000       0.00000000       0.00000000    
   1.06250000       0.00000000       0.00000000       0.00000000       0.00000000    
   1.06250000       2.50000004E-02  0.129804015      -1.96862756E-03  0.129818946    
   1.06250000       7.50000030E-02  0.366621405      -5.30321710E-03  0.366659760    
   1.06250000      0.125000000      0.579681754      -7.33364699E-03  0.579728127    
   1.06250000      0.175000012      0.767983913      -8.09041224E-03  0.768026531    
   1.06250000      0.224999994      0.930615306      -7.85526074E-03  0.930648446    
   1.06250000      0.275000006       1.06683147      -6.93566166E-03   1.06685400    
   1.06250000      0.324999988       1.17610884      -5.62111009E-03   1.17612231    
   1.06250000      0.375000000       1.25814795      -4.14060941E-03   1.25815475    
   1.06250000      0.425000012       1.31282675      -2.63573416E-03   1.31282938    
   1.06250000      0.475000024       1.34012771      -1.15910405E-03   1.34012818    
   1.06250000      0.524999976       1.34006548       3.02108470E-04   1.34006560    
   1.06250000      0.575000048       1.31264329       1.78546878E-03   1.31264448    
   1.06250000      0.625000000       1.25785136       3.30427848E-03   1.25785577    
   1.06250000      0.675000012       1.17571449       4.80432296E-03   1.17572427    
   1.06250000      0.725000024       1.06636238       6.14160812E-03   1.06638002    
   1.06250000      0.774999976      0.930105090       7.08557293E-03  0.930132091    
   1.06250000      0.825000048      0.767476439       7.34505337E-03  0.767511547    
   1.06250000      0.875000000      0.579232275       6.61129877E-03  0.579270005    
   1.06250000      0.925000012      0.366298020       4.61095013E-03  0.366327047    
   1.06250000      0.975000024      0.129682600       1.63195934E-03  0.129692867    
   1.06250000       1.00000000       0.00000000       0.00000000       0.00000000    
   1.18750000       0.00000000       0.00000000       0.00000000       0.00000000    
   1.18750000       2.50000004E-02  0.127819121      -2.00590724E-03  0.127834857    
   1.18750000       7.50000030E-02  0.360896051      -5.49146766E-03  0.360937834    
   1.18750000      0.125000000      0.570606411      -7.80583173E-03  0.570659816    
   1.18750000      0.175000012      0.756097138      -8.92014988E-03  0.756149769    
   1.18750000      0.224999994      0.916552246      -9.02728643E-03  0.916596711    
   1.18750000      0.275000006       1.05124843      -8.33860040E-03   1.05128145    
   1.18750000      0.324999988       1.15959620      -7.06414506E-03   1.15961778    
   1.18750000      0.375000000       1.24115944      -5.39331185E-03   1.24117112    
   1.18750000      0.425000012       1.29564834      -3.48029984E-03   1.29565299    
   1.18750000      0.475000024       1.32289457      -1.44037721E-03   1.32289529    
   1.18750000      0.524999976       1.32282543       6.39401842E-04   1.32282555    
   1.18750000      0.575000048       1.29544282       2.68366421E-03   1.29544556    
   1.18750000      0.625000000       1.24082792       4.60594334E-03   1.24083650    
   1.18750000      0.675000012       1.15915799       6.28945697E-03   1.15917504    
   1.18750000      0.725000024       1.05073118       7.57890940E-03   1.05075848    
   1.18750000      0.774999976      0.915994287       8.28361884E-03  0.916031718    
   1.18750000      0.825000048      0.755546808       8.19242746E-03  0.755591214    
   1.18750000      0.875000000      0.570123494       7.09376764E-03  0.570167601    
   1.18750000      0.925000012      0.360551000       4.80344752E-03  0.360583007    
   1.18750000      0.975000024      0.127689779       1.67005882E-03  0.127700701    
   1.18750000       1.00000000       0.00000000       0.00000000       0.00000000    
   1.31250000       0.00000000       0.00000000       0.00000000       0.00000000    
   1.31250000       2.50000004E-02  0.125957668      -2.01830245E-03  0.125973836    
   1.31250000       7.50000030E-02  0.355562538      -5.55888657E-03  0.355605990    
   1.31250000      0.125000000      0.562127054      -7.98371807E-03  0.562183738    
   1.31250000      0.175000012      0.744874656      -9.24381055E-03  0.744931996    
   1.31250000      0.224999994      0.903046429      -9.49661899E-03  0.903096378    
   1.31250000      0.275000006       1.03594494      -8.91130976E-03   1.03598320    
   1.31250000      0.324999988       1.14296710      -7.66118988E-03   1.14299273    
   1.31250000      0.375000000       1.22362709      -5.91520593E-03   1.22364140    
   1.31250000      0.425000012       1.27756786      -3.83068295E-03   1.27757359    
   1.31250000      0.475000024       1.30455709      -1.55072659E-03   1.30455792    
   1.31250000      0.524999976       1.30448341       7.93893007E-04   1.30448365    
   1.31250000      0.575000048       1.27734888       3.07680434E-03   1.27735257    
   1.31250000      0.625000000       1.22327399       5.16647100E-03   1.22328496    
   1.31250000      0.675000012       1.14250135       6.91936351E-03   1.14252234    
   1.31250000      0.725000024       1.03539824       8.17791745E-03   1.03543055    
   1.31250000      0.774999976      0.902459621       8.77282582E-03  0.902502298    
   1.31250000      0.825000048      0.744299114       8.52948613E-03  0.744347990    
   1.31250000      0.875000000      0.561624706       7.27893040E-03  0.561671853    
   1.31250000      0.925000012      0.355204821       4.87368694E-03  0.355238259    
   1.31250000      0.975000024      0.125823721       1.68295775E-03  0.125834972    
   1.31250000       1.00000000       0.00000000       0.00000000       0.00000000    
   1.43750000       0.00000000       0.00000000       0.00000000       0.00000000    
   1.43750000       2.50000004E-02  0.124133974      -2.02120352E-03  0.124150433    
   1.43750000       7.50000030E-02  0.350368083      -5.57776634E-03  0.350412488    
   1.43750000      0.125000000      0.553875804      -8.03905539E-03  0.553934157    
   1.43750000      0.175000012      0.733920217      -9.35162418E-03  0.733979762    
   1.43750000      0.224999994      0.889777184      -9.66005400E-03  0.889829636    
   1.43750000      0.275000006       1.02077150      -9.11711156E-03   1.02081215    
   1.43750000      0.324999988       1.12630463      -7.88059458E-03   1.12633216    
   1.43750000      0.375000000       1.20587921      -6.10932987E-03   1.20589471    
   1.43750000      0.425000012       1.25911546      -3.96034541E-03   1.25912166    
   1.43750000      0.475000024       1.28575861      -1.58679066E-03   1.28575957    
   1.43750000      0.524999976       1.28568220       8.61867564E-04   1.28568256    
   1.43750000      0.575000048       1.25888920       3.23692895E-03   1.25889337    
   1.43750000      0.625000000       1.20551455       5.38835023E-03   1.20552659    
   1.43750000      0.675000012       1.12582481       7.16308272E-03   1.12584758    
   1.43750000      0.725000024       1.02021003       8.40357505E-03   1.02024460    
   1.43750000      0.774999976      0.889176667       8.95032287E-03  0.889221728    
   1.43750000      0.825000048      0.733333230       8.64601042E-03  0.733384192    
   1.43750000      0.875000000      0.553365469       7.33880792E-03  0.553414106    
   1.43750000      0.925000012      0.350005746       4.89420909E-03  0.350039959    
   1.43750000      0.975000024      0.123998821       1.68623682E-03  0.124010287    
   1.43750000       1.00000000       0.00000000       0.00000000       0.00000000    
   1.56250000       0.00000000       0.00000000       0.00000000       0.00000000    
   1.56250000       2.50000004E-02  0.122315615      -2.02061702E-03  0.122332305    
   1.56250000       7.50000030E-02  0.345210612      -5.57847228E-03  0.345255673    
   1.56250000      0.125000000      0.545697033      -8.04733485E-03  0.545756340    
   1.56250000      0.175000012      0.723060489      -9.37438570E-03  0.723121226    
   1.56250000      0.224999994      0.876598477      -9.70122591E-03  0.876652122    
   1.56250000      0.275000006       1.00565350      -9.17397067E-03   1.00569534    
   1.56250000      0.324999988       1.10963762      -7.94376526E-03   1.10966599    
   1.56250000      0.375000000       1.18805623      -6.16599433E-03   1.18807220    
   1.56250000      0.425000012       1.24052596      -3.99677409E-03   1.24053240    
   1.56250000      0.475000024       1.26678705      -1.59244484E-03   1.26678801    
   1.56250000      0.524999976       1.26670980       8.89929477E-04   1.26671016    
   1.56250000      0.575000048       1.24029708       3.29415267E-03   1.24030149    
   1.56250000      0.625000000       1.18768740       5.46413474E-03   1.18769991    
   1.56250000      0.675000012       1.10915339       7.24239834E-03   1.10917699    
   1.56250000      0.725000024       1.00508809       8.47264845E-03   1.00512373    
   1.56250000      0.774999976      0.875995517       9.00052860E-03  0.876041770    
   1.56250000      0.825000048      0.722472668       8.67496617E-03  0.722524762    
   1.56250000      0.875000000      0.545187712       7.35041359E-03  0.545237243    
   1.56250000      0.925000012      0.344850242       4.89597628E-03  0.344884992    
   1.56250000      0.975000024      0.122182019       1.68571423E-03  0.122193649    
   1.56250000       1.00000000       0.00000000       0.00000000       0.00000000    
   1.68750000       0.00000000       0.00000000       0.00000000       0.00000000    
   1.68750000       2.50000004E-02  0.120493993      -2.01916206E-03  0.120510913    
   1.68750000       7.50000030E-02  0.340055764      -5.57454862E-03  0.340101451    
   1.68750000      0.125000000      0.537532687      -8.04256834E-03  0.537592828    
   1.68750000      0.175000012      0.712225676      -9.37113725E-03  0.712287307    
   1.68750000      0.224999994      0.863447845      -9.70109552E-03  0.863502324    
   1.68750000      0.275000006      0.990556002      -9.17795394E-03  0.990598500    
   1.68750000      0.324999988       1.09297371      -7.95116648E-03   1.09300256    
   1.68750000      0.375000000       1.17021286      -6.17317902E-03   1.17022920    
   1.68750000      0.425000012       1.22189593      -4.00000904E-03   1.22190249    
   1.68750000      0.475000024       1.24776304      -1.58940209E-03   1.24776399    
   1.68750000      0.524999976       1.24768591       9.00649407E-04   1.24768627    
   1.68750000      0.575000048       1.22166717       3.31117539E-03   1.22167158    
   1.68750000      0.625000000       1.16984534       5.48335677E-03   1.16985822    
   1.68750000      0.675000012       1.09249115       7.26000546E-03   1.09251523    
   1.68750000      0.725000024      0.989993513       8.48543737E-03  0.990029871    
   1.68750000      0.774999976      0.862849474       9.00665391E-03  0.862896502    
   1.68750000      0.825000048      0.711643696       8.67513940E-03  0.711696625    
   1.68750000      0.875000000      0.537029326       7.34764989E-03  0.537079632    
   1.68750000      0.925000012      0.339700282       4.89343330E-03  0.339735538    
   1.68750000      0.975000024      0.120361686       1.68475090E-03  0.120373473    
   1.68750000       1.00000000       0.00000000       0.00000000       0.00000000    
   1.81250000       0.00000000       0.00000000       0.00000000       0.00000000    
   1.81250000       2.50000004E-02  0.118667781      -2.01814389E-03  0.118684940    
   1.81250000       7.50000030E-02  0.334893942      -5.57073206E-03  0.334940284    
   1.81250000      0.125000000      0.529364228      -8.03547353E-03  0.529425263    
   1.81250000      0.175000012      0.701391399      -9.36185941E-03  0.701453865    
   1.81250000      0.224999994      0.850302160      -9.69120767E-03  0.850357413    
   1.81250000      0.275000006      0.975464821      -9.16854292E-03  0.975507855    
   1.81250000      0.324999988       1.07631326      -7.94286281E-03   1.07634258    
   1.81250000      0.375000000       1.15236878      -6.16640598E-03   1.15238523    
   1.81250000      0.425000012       1.20325983      -3.99449375E-03   1.20326650    
   1.81250000      0.475000024       1.22873044      -1.58479833E-03   1.22873151    
   1.81250000      0.524999976       1.22865403       9.04094661E-04   1.22865438    
   1.81250000      0.575000048       1.20303345       3.31304572E-03   1.20303798    
   1.81250000      0.625000000       1.15200543       5.48313744E-03   1.15201843    
   1.81250000      0.675000012       1.07583666       7.25726318E-03   1.07586122    
   1.81250000      0.725000024      0.974909484       8.48019868E-03  0.974946380    
   1.81250000      0.774999976      0.849712074       8.99978541E-03  0.849759758    