 TITLE= "TESTPLOT" 
 VARIABLES="x","y","fx","fy","magf" 
 ZONE T="1", I=          81 , J=          21
   0.00000000       0.00000000       1.00000000       0.00000000       1.00000000    
   0.00000000       2.50000004E-02   1.00000000       0.00000000       1.00000000    
   0.00000000       7.50000030E-02   1.00000000       0.00000000       1.00000000    
   0.00000000      0.125000000       1.00000000       0.00000000       1.00000000    
   0.00000000      0.175000012       1.00000000       0.00000000       1.00000000    
   0.00000000      0.224999994       1.00000000       0.00000000       1.00000000    
   0.00000000      0.275000006       1.00000000       0.00000000       1.00000000    
   0.00000000      0.324999988       1.00000000       0.00000000       1.00000000    
   0.00000000      0.375000000       1.00000000       0.00000000       1.00000000    
   0.00000000      0.425000012       1.00000000       0.00000000       1.00000000    
   0.00000000      0.475000024       1.00000000       0.00000000       1.00000000    
   0.00000000      0.524999976       1.00000000       0.00000000       1.00000000    
   0.00000000      0.575000048       1.00000000       0.00000000       1.00000000    
   0.00000000      0.625000000       1.00000000       0.00000000       1.00000000    
   0.00000000      0.675000012       1.00000000       0.00000000       1.00000000    
   0.00000000      0.725000024       1.00000000       0.00000000       1.00000000    
   0.00000000      0.774999976       1.00000000       0.00000000       1.00000000    
   0.00000000      0.825000048       1.00000000       0.00000000       1.00000000    
   0.00000000      0.875000000       1.00000000       0.00000000       1.00000000    
   0.00000000      0.925000012       1.00000000       0.00000000       1.00000000    
   0.00000000      0.975000024       1.00000000       0.00000000       1.00000000    
   0.00000000       1.00000000       1.00000000       0.00000000       1.00000000    
   6.25000000E-02   0.00000000      0.500000000       0.00000000      0.500000000    
   6.25000000E-02   2.50000004E-02  0.718335211      0.111374937      0.726918042    
   6.25000000E-02   7.50000030E-02  0.923707604      0.251878709      0.957433343    
   6.25000000E-02  0.125000000       1.01504922      0.273602009       1.05127680    
   6.25000000E-02  0.175000012       1.04981327      0.244886190       1.07799685    
   6.25000000E-02  0.224999994       1.05748844      0.199195877       1.07608593    
   6.25000000E-02  0.275000006       1.05352235      0.152022094       1.06443417    
   6.25000000E-02  0.324999988       1.04588819      0.109488353       1.05160344    
   6.25000000E-02  0.375000000       1.03848386       7.29696527E-02   1.04104435    
   6.25000000E-02  0.425000012       1.03304195       4.15889099E-02   1.03387868    
   6.25000000E-02  0.475000024       1.03022444       1.35117201E-02   1.03031301    
   6.25000000E-02  0.524999976       1.03022969      -1.34407664E-02   1.03031731    
   6.25000000E-02  0.575000048       1.03305829      -4.15268540E-02   1.03389251    
   6.25000000E-02  0.625000000       1.03851318      -7.29260892E-02   1.04107058    
   6.25000000E-02  0.675000012       1.04593098     -0.109474242       1.05164456    
   6.25000000E-02  0.725000024       1.05358052     -0.152049392       1.06449568    
   6.25000000E-02  0.774999976       1.05756247     -0.199277282       1.07617366    
   6.25000000E-02  0.825000048       1.04990149     -0.245033577       1.07811618    
   6.25000000E-02  0.875000000       1.01514459     -0.273822904       1.05142641    
   6.25000000E-02  0.925000012      0.923796892     -0.252166897      0.957595348    
   6.25000000E-02  0.975000024      0.718391955     -0.111533754      0.726998448    
   6.25000000E-02   1.00000000      0.500000000       0.00000000      0.500000000    
  0.187500000       0.00000000       0.00000000       0.00000000       0.00000000    
  0.187500000       2.50000004E-02  0.346139371       3.49002667E-02  0.347894371    
  0.187500000       7.50000030E-02  0.744884968      0.109399423      0.752875745    
  0.187500000      0.125000000      0.965652585      0.173365206      0.981091440    
  0.187500000      0.175000012       1.07827401      0.204862565       1.09756255    
  0.187500000      0.224999994       1.12699378      0.205775827       1.14562595    
  0.187500000      0.275000006       1.14037943      0.184814334       1.15525818    
  0.187500000      0.324999988       1.13664949      0.150710240       1.14659739    
  0.187500000      0.375000000       1.12697864      0.109935708       1.13232803    
  0.187500000      0.425000012       1.11781323       6.64187223E-02   1.11978471    
  0.187500000      0.475000024       1.11253166       2.20728889E-02   1.11275065    
  0.187500000      0.524999976       1.11254787      -2.24166326E-02   1.11277366    
  0.187500000      0.575000048       1.11786222      -6.67714328E-02   1.11985457    
  0.187500000      0.625000000       1.12706137     -0.110304989       1.13244629    
  0.187500000      0.675000012       1.13676429     -0.151101381       1.14676273    
  0.187500000      0.725000024       1.14052343     -0.185228765       1.15546679    
  0.187500000      0.774999976       1.12716103     -0.206209794       1.14586842    
  0.187500000      0.825000048       1.07845378     -0.205306426       1.09782207    
  0.187500000      0.875000000      0.965827644     -0.173803985      0.981341362    
  0.187500000      0.925000012      0.745031714     -0.109812051      0.753080964    
  0.187500000      0.975000024      0.346223235      -3.50969024E-02  0.347997576    
  0.187500000       1.00000000       0.00000000       0.00000000       0.00000000    
  0.312500000       0.00000000       0.00000000       0.00000000       0.00000000    
  0.312500000       2.50000004E-02  0.228733659       9.42268595E-03  0.228927672    
  0.312500000       7.50000030E-02  0.591458976       3.77740525E-02  0.592664003    
  0.312500000      0.125000000      0.852499068       7.47578964E-02  0.855770648    
  0.312500000      0.175000012       1.02466488      0.104288578       1.02995837    
  0.312500000      0.224999994       1.12730002      0.119021595       1.13356578    
  0.312500000      0.275000006       1.18067050      0.118069895       1.18655944    
  0.312500000      0.324999988       1.20281529      0.103916988       1.20729589    
  0.312500000      0.375000000       1.20799255       8.01452100E-02   1.21064830    
  0.312500000      0.425000012       1.20630050       5.01870140E-02   1.20734406    
  0.312500000      0.475000024       1.20399368       1.68781839E-02   1.20411205    
  0.312500000      0.524999976       1.20401597      -1.74792912E-02   1.20414281    
  0.312500000      0.575000048       1.20636594      -5.07882163E-02   1.20743454    
  0.312500000      0.625000000       1.20809674      -8.07453394E-02   1.21079206    
  0.312500000      0.675000012       1.20294929     -0.104512244       1.20748079    
  0.312500000      0.725000024       1.18082070     -0.118653193       1.18676710    
  0.312500000      0.774999976       1.12745023     -0.119582482       1.13377428    
  0.312500000      0.825000048       1.02479720     -0.104814924       1.03014338    
  0.312500000      0.875000000      0.852598190      -7.52389431E-02  0.855911553    
  0.312500000      0.925000012      0.591518164      -3.82010788E-02  0.592750430    
  0.312500000      0.975000024      0.228758559      -9.62167419E-03  0.228960812    
  0.312500000       1.00000000       0.00000000       0.00000000       0.00000000    
  0.437500000       0.00000000       0.00000000       0.00000000       0.00000000    
  0.437500000       2.50000004E-02  0.193693459       1.91853754E-03  0.193702966    
  0.437500000       7.50000030E-02  0.520125985       1.05604613E-02  0.520233154    
  0.437500000      0.125000000      0.779215813       2.56641135E-02  0.779638290    
  0.437500000      0.175000012      0.971229076       4.10669520E-02  0.972096920    
  0.437500000      0.224999994       1.10242438       5.19068614E-02   1.10364568    
  0.437500000      0.275000006       1.18406284       5.57011813E-02   1.18537235    
  0.437500000      0.324999988       1.22955060       5.20523936E-02   1.23065197    
  0.437500000      0.375000000       1.25163138       4.19235453E-02   1.25233328    
  0.437500000      0.425000012       1.26056552       2.69689038E-02   1.26085401    
  0.437500000      0.475000024       1.26331055       9.09339450E-03   1.26334333    
  0.437500000      0.524999976       1.26332927      -9.75309778E-03   1.26336694    
  0.437500000      0.575000048       1.26062012      -2.76232176E-02   1.26092267    
  0.437500000      0.625000000       1.25171280      -4.25662734E-02   1.25243640    
  0.437500000      0.675000012       1.22964525      -5.26762009E-02   1.23077309    
  0.437500000      0.725000024       1.18415165      -5.62981293E-02   1.18548918    
  0.437500000      0.774999976       1.10248780      -5.24684116E-02   1.10373557    
  0.437500000      0.825000048      0.971253633      -4.15857062E-02  0.972143531    
  0.437500000      0.875000000      0.779198170      -2.61362772E-02  0.779636383    
  0.437500000      0.925000012      0.520083308      -1.09839514E-02  0.520199299    
  0.437500000      0.975000024      0.193667635      -2.11777864E-03  0.193679214    
  0.437500000       1.00000000       0.00000000       0.00000000       0.00000000    
  0.562500000       0.00000000       0.00000000       0.00000000       0.00000000    
  0.562500000       2.50000004E-02  0.183400810      -5.22622664E-04  0.183401555    
  0.562500000       7.50000030E-02  0.492257595       4.48218721E-04  0.492257804    
  0.562500000      0.125000000      0.743715048       4.83471714E-03  0.743730783    
  0.562500000      0.175000012      0.938571453       1.08426651E-02  0.938634038    
  0.562500000      0.224999994       1.07980728       1.62622351E-02   1.07992971    
  0.562500000      0.275000006       1.17464328       1.94330886E-02   1.17480397    
  0.562500000      0.324999988       1.23322630       1.95301212E-02   1.23338091    
  0.562500000      0.375000000       1.26621127       1.65072903E-02   1.26631892    
  0.562500000      0.425000012       1.28276336       1.09013459E-02   1.28280973    
  0.562500000      0.475000024       1.28938365       3.61865829E-03   1.28938878    
  0.562500000      0.524999976       1.28939462      -4.24042298E-03   1.28940165    
  0.562500000      0.575000048       1.28279424      -1.15165971E-02   1.28284597    
  0.562500000      0.625000000       1.26625204      -1.71096046E-02   1.26636767    
  0.562500000      0.675000012       1.23326206      -2.01129559E-02   1.23342597    
  0.562500000      0.725000024       1.17465520      -1.99901164E-02   1.17482531    
  0.562500000      0.774999976       1.07977867      -1.67883262E-02   1.07990909    
  0.562500000      0.825000048      0.938495278      -1.13346223E-02  0.938563704    
  0.562500000      0.875000000      0.743600130      -5.29196020E-03  0.743618965    
  0.562500000      0.925000012      0.492137998      -8.69053591E-04  0.492138773    
  0.562500000      0.975000024      0.183340058       3.21896106E-04  0.183340341    
  0.562500000       1.00000000       0.00000000       0.00000000       0.00000000    
  0.687500000       0.00000000       0.00000000       0.00000000       0.00000000    
  0.687500000       2.50000004E-02  0.181081891      -1.32713665E-03  0.181086749    
  0.687500000       7.50000030E-02  0.482234776      -3.12942173E-03  0.482244939    
  0.687500000      0.125000000      0.727749348      -3.09833814E-03  0.727755904    
  0.687500000      0.175000012      0.920640588      -1.52009074E-03  0.920641840    
  0.687500000      0.224999994       1.06373060       6.93195791E-04   1.06373084    
  0.687500000      0.275000006       1.16297507       2.65105534E-03   1.16297805    
  0.687500000      0.324999988       1.22700810       3.73982312E-03   1.22701371    
  0.687500000      0.375000000       1.26516485       3.70001234E-03   1.26517022    
  0.687500000      0.425000012       1.28564954       2.60132574E-03   1.28565216    
  0.687500000      0.475000024       1.29436994       7.65738427E-04   1.29437017    
  0.687500000      0.524999976       1.29437363      -1.33074075E-03   1.29437435    
  0.687500000      0.575000048       1.28565788      -3.16115888E-03   1.28566182    
  0.687500000      0.625000000       1.26516771      -4.24955320E-03   1.26517487    
  0.687500000      0.675000012       1.22699213      -4.27432917E-03   1.22699964    
  0.687500000      0.725000024       1.16292381      -3.16672400E-03   1.16292810    
  0.687500000      0.774999976       1.06363153      -1.18741242E-03   1.06363225    
  0.687500000      0.825000048      0.920492053       1.04883919E-03  0.920492649    
  0.687500000      0.875000000      0.727568507       2.65015289E-03  0.727573335    
  0.687500000      0.925000012      0.482065499       2.70757964E-03  0.482073098    
  0.687500000      0.975000024      0.180999860       1.12372462E-03  0.181003347    
  0.687500000       1.00000000       0.00000000       0.00000000       0.00000000    
  0.812500000       0.00000000       0.00000000       0.00000000       0.00000000    
  0.812500000       2.50000004E-02  0.181227326      -1.57315633E-03  0.181234151    
  0.812500000       7.50000030E-02  0.478609979      -4.28197533E-03  0.478629142    
  0.812500000      0.125000000      0.719796240      -5.79958363E-03  0.719819605    
  0.812500000      0.175000012      0.909780145      -5.96449291E-03  0.909799695    
  0.812500000      0.224999994       1.05184722      -5.18987048E-03   1.05186009    
  0.812500000      0.275000006       1.15165138      -3.97349522E-03   1.15165818    
  0.812500000      0.324999988       1.21721482      -2.72369059E-03   1.21721792    
  0.812500000      0.375000000       1.25720501      -1.69072300E-03   1.25720608    
  0.812500000      0.425000012       1.27925038      -9.56653268E-04   1.27925074    
  0.812500000      0.475000024       1.28885186      -4.62861382E-04   1.28885198    
  0.812500000      0.524999976       1.28885019      -5.85867165E-05   1.28885019    
  0.812500000      0.575000048       1.27924192       4.38803429E-04   1.27924204    
  0.812500000      0.625000000       1.25718045       1.17979385E-03   1.25718105    
  0.812500000      0.675000012       1.21716237       2.22276524E-03   1.21716440    
  0.812500000      0.725000024       1.15155697       3.48488102E-03   1.15156221    
  0.812500000      0.774999976       1.05170166       4.71498538E-03   1.05171216    
  0.812500000      0.825000048      0.909585476       5.50398417E-03  0.909602106    
  0.812500000      0.875000000      0.719574690       5.35360444E-03  0.719594598    
  0.812500000      0.925000012      0.478410840       3.85521469E-03  0.478426367    
  0.812500000      0.975000024      0.181132585       1.36572169E-03  0.181137726    
  0.812500000       1.00000000       0.00000000       0.00000000       0.00000000    
  0.937500000       0.00000000       0.00000000       0.00000000       0.00000000    
  0.937500000       2.50000004E-02  0.181971133      -1.63991633E-03  0.181978524    
  0.937500000       7.50000030E-02  0.476917505      -4.60690772E-03  0.476939768    
  0.937500000      0.125000000      0.714586437      -6.60402793E-03  0.714616954    
  0.937500000      0.175000012      0.901629031      -7.36500043E-03  0.901659131    
  0.937500000      0.224999994       1.04182196      -7.13706249E-03   1.04184639    
  0.937500000      0.275000006       1.14077032      -6.25773426E-03   1.14078748    
  0.937500000      0.324999988       1.20622814      -5.02675679E-03   1.20623863    
  0.937500000      0.375000000       1.24652529      -3.65916500E-03   1.24653065    
  0.937500000      0.425000012       1.26897359      -2.27625575E-03   1.26897562    
  0.937500000      0.475000024       1.27883685      -9.19373124E-04   1.27883720    
  0.937500000      0.524999976       1.27883148       4.23423189E-04   1.27883160    
  0.937500000      0.575000048       1.26895380       1.78238377E-03   1.26895511    
  0.937500000      0.625000000       1.24648285       3.16920597E-03   1.24648690    
  0.937500000      0.675000012       1.20615268       4.54291608E-03   1.20616126    
  0.937500000      0.725000024       1.14064932       5.78146242E-03   1.14066398    
  0.937500000      0.774999976       1.04164839       6.66895881E-03   1.04166973    
  0.937500000      0.825000048      0.901407361       6.90556224E-03  0.901433825    
  0.937500000      0.875000000      0.714341283       6.15357654E-03  0.714367747    
  0.937500000      0.925000012      0.476700962       4.17125132E-03  0.476719230    
  0.937500000      0.975000024      0.181868628       1.42723159E-03  0.181874231    
  0.937500000       1.00000000       0.00000000       0.00000000       0.00000000    
   1.06250000       0.00000000       0.00000000       0.00000000       0.00000000    
   1.06250000       2.50000004E-02  0.182720929      -1.65679259E-03  0.182728440    
   1.06250000       7.50000030E-02  0.475589484      -4.68251668E-03  0.475612521    
   1.06250000      0.125000000      0.710074663      -6.79990184E-03  0.710107207    
   1.06250000      0.175000012      0.894270658      -7.73575436E-03  0.894304097    
   1.06250000      0.224999994       1.03238797      -7.68913329E-03   1.03241658    
   1.06250000      0.275000006       1.13003016      -6.94000535E-03   1.13005149    
   1.06250000      0.324999988       1.19479346      -5.74187003E-03   1.19480729    
   1.06250000      0.375000000       1.23480368      -4.28741192E-03   1.23481107    
   1.06250000      0.425000012       1.25718093      -2.70467578E-03   1.25718379    
   1.06250000      0.475000024       1.26704550      -1.06823235E-03   1.26704597    
   1.06250000      0.524999976       1.26703715       5.82483015E-04   1.26703727    
   1.06250000      0.575000048       1.25715399       2.22025160E-03   1.25715590    
   1.06250000      0.625000000       1.23475027       3.80524551E-03   1.23475611    
   1.06250000      0.675000012       1.19470346       5.26302867E-03   1.19471502    
   1.06250000      0.725000024       1.12989283       6.46540895E-03   1.12991130    
   1.06250000      0.774999976       1.03219748       7.21912365E-03   1.03222275    
   1.06250000      0.825000048      0.894033432       7.27076223E-03  0.894062996    
   1.06250000      0.875000000      0.709816277       6.34060428E-03  0.709844589    
   1.06250000      0.925000012      0.475362927       4.23573423E-03  0.475381792    
   1.06250000      0.975000024      0.182613760       1.43817207E-03  0.182619423    
   1.06250000       1.00000000       0.00000000       0.00000000       0.00000000    
   1.18750000       0.00000000       0.00000000       0.00000000       0.00000000    
   1.18750000       2.50000004E-02  0.183309555      -1.66377018E-03  0.183317110    
   1.18750000       7.50000030E-02  0.474131048      -4.69776848E-03  0.474154323    
   1.18750000      0.125000000      0.705556571      -6.83063874E-03  0.705589652    
   1.18750000      0.175000012      0.886978626      -7.80578516E-03  0.887012959    
   1.18750000      0.224999994       1.02299500      -7.81090371E-03   1.02302480    
   1.18750000      0.275000006       1.11921048      -7.10631255E-03   1.11923313    
   1.18750000      0.324999988       1.18309462      -5.92784025E-03   1.18310952    
   1.18750000      0.375000000       1.22261572      -4.45813639E-03   1.22262383    
   1.18750000      0.425000012       1.24475276      -2.82497564E-03   1.24475598    
   1.18750000      0.475000024       1.25452304      -1.11179391E-03   1.25452352    
   1.18750000      0.524999976       1.25451326       6.25345099E-04   1.25451338    
   1.18750000      0.575000048       1.24472153       2.33934610E-03   1.24472368    
   1.18750000      0.625000000       1.22255588       3.97388544E-03   1.22256231    
   1.18750000      0.675000012       1.18299627       5.44524984E-03   1.18300879    
   1.18750000      0.725000024       1.11906409       6.62576826E-03   1.11908364    
   1.18750000      0.774999976       1.02279544       7.33284652E-03   1.02282166    
   1.18750000      0.825000048      0.886733174       7.33073708E-03  0.886763513    
   1.18750000      0.875000000      0.705291450       6.35952270E-03  0.705320120    
   1.18750000      0.925000012      0.473899186       4.23810631E-03  0.473918140    
   1.18750000      0.975000024      0.183199659       1.43854460E-03  0.183205321    
   1.18750000       1.00000000       0.00000000       0.00000000       0.00000000    
   1.31250000       0.00000000       0.00000000       0.00000000       0.00000000    
   1.31250000       2.50000004E-02  0.183696881      -1.67118898E-03  0.183704481    
   1.31250000       7.50000030E-02  0.472402930      -4.70564328E-03  0.472426355    
   1.31250000      0.125000000      0.700813413      -6.82926923E-03  0.700846672    
   1.31250000      0.175000012      0.879504681      -7.80600077E-03  0.879539311    
   1.31250000      0.224999994       1.01343179      -7.82200880E-03   1.01346195    
   1.31250000      0.275000006       1.10819840      -7.13096512E-03   1.10822141    
   1.31250000      0.324999988       1.17115438      -5.96238114E-03   1.17116952    
   1.31250000      0.375000000       1.21012640      -4.49437555E-03   1.21013474    
   1.31250000      0.425000012       1.23197055      -2.85321288E-03   1.23197389    
   1.31250000      0.475000024       1.24161553      -1.12461147E-03   1.24161613    
   1.31250000      0.524999976       1.24160516       6.30641822E-04   1.24160528    
   1.31250000      0.575000048       1.23193645       2.35978374E-03   1.23193872    
   1.31250000      0.625000000       1.21006298       4.00185166E-03   1.21006966    
   1.31250000      0.675000012       1.17105126       5.47107961E-03   1.17106402    
   1.31250000      0.725000024       1.10804701       6.64075185E-03   1.10806692    
   1.31250000      0.774999976       1.01322770       7.33280648E-03   1.01325428    
   1.31250000      0.825000048      0.879255176       7.31849298E-03  0.879285634    
   1.31250000      0.875000000      0.700545073       6.34462759E-03  0.700573802    
   1.31250000      0.925000012      0.472168744       4.23184736E-03  0.472187698    
   1.31250000      0.975000024      0.183585495       1.43882341E-03  0.183591127    
   1.31250000       1.00000000       0.00000000       0.00000000       0.00000000    
   1.43750000       0.00000000       0.00000000       0.00000000       0.00000000    
   1.43750000       2.50000004E-02  0.183874995      -1.68052269E-03  0.183882669    
   1.43750000       7.50000030E-02  0.470369875      -4.71744686E-03  0.470393538    
   1.43750000      0.125000000      0.695781589      -6.82899915E-03  0.695815086    
   1.43750000      0.175000012      0.871768177      -7.79935159E-03  0.871803045    
   1.43750000      0.224999994       1.00362015      -7.81556126E-03   1.00365055    
   1.43750000      0.275000006       1.09693885      -7.12837232E-03   1.09696198    
   1.43750000      0.324999988       1.15895772      -5.96426241E-03   1.15897310    
   1.43750000      0.375000000       1.19736660      -4.49926406E-03   1.19737506    
   1.43750000      0.425000012       1.21890318      -2.85926647E-03   1.21890652    
   1.43750000      0.475000024       1.22841489      -1.13055774E-03   1.22841549    
   1.43750000      0.524999976       1.22840381       6.25266402E-04   1.22840393    
   1.43750000      0.575000048       1.21886778       2.35449383E-03   1.21887004    
   1.43750000      0.625000000       1.19730079       3.99485324E-03   1.19730747    
   1.43750000      0.675000012       1.15885210       5.46020828E-03   1.15886497    
   1.43750000      0.725000024       1.09678507       6.62491005E-03   1.09680510    
   1.43750000      0.774999976       1.00341380       7.31269084E-03   1.00344050    
   1.43750000      0.825000048      0.871517181       7.29735056E-03  0.871547759    
   1.43750000      0.875000000      0.695512116       6.32914528E-03  0.695540905    
   1.43750000      0.925000012      0.470134914       4.22838656E-03  0.470153928    
   1.43750000      0.975000024      0.183762521       1.44060969E-03  0.183768168    
   1.43750000       1.00000000       0.00000000       0.00000000       0.00000000    
   1.56250000       0.00000000       0.00000000       0.00000000       0.00000000    
   1.56250000       2.50000004E-02  0.183840066      -1.69143197E-03  0.183847845    
   1.56250000       7.50000030E-02  0.468021452      -4.73353732E-03  0.468045384    
   1.56250000      0.125000000      0.690441608      -6.83469605E-03  0.690475404    
   1.56250000      0.175000012      0.863741398      -7.79867638E-03  0.863776624    
   1.56250000      0.224999994      0.993528605      -7.81321712E-03  0.993559361    
   1.56250000      0.275000006       1.08540368      -7.12664798E-03   1.08542705    
   1.56250000      0.324999988       1.14648628      -5.96419442E-03   1.14650178    
   1.56250000      0.375000000       1.18432975      -4.50143777E-03   1.18433833    
   1.56250000      0.425000012       1.20555580      -2.86352425E-03   1.20555913    
   1.56250000      0.475000024       1.21493256      -1.13649073E-03   1.21493304    
   1.56250000      0.524999976       1.21492112       6.17663260E-04   1.21492124    
   1.56250000      0.575000048       1.20551980       2.34480738E-03   1.20552206    
   1.56250000      0.625000000       1.18426299       3.98285221E-03   1.18426967    
   1.56250000      0.675000012       1.14637983       5.44569269E-03   1.14639282    
   1.56250000      0.725000024       1.08524942       6.60815695E-03   1.08526957    
   1.56250000      0.774999976      0.993322134       7.29489885E-03  0.993348897    
   1.56250000      0.825000048      0.863490939       7.28097744E-03  0.863521636    
   1.56250000      0.875000000      0.690173149       6.31905533E-03  0.690202057    
   1.56250000      0.925000012      0.467787206       4.22888435E-03  0.467806309    
   1.56250000      0.975000024      0.183727548       1.44380610E-03  0.183733225    
   1.56250000       1.00000000       0.00000000       0.00000000       0.00000000    
   1.68750000       0.00000000       0.00000000       0.00000000       0.00000000    
   1.68750000       2.50000004E-02  0.183589026      -1.70342170E-03  0.183596924    
   1.68750000       7.50000030E-02  0.465352416      -4.75279428E-03  0.465376675    
   1.68750000      0.125000000      0.684785843      -6.84519671E-03  0.684820056    
   1.68750000      0.175000012      0.855413079      -7.80371949E-03  0.855448663    
   1.68750000      0.224999994      0.983143210      -7.81660154E-03  0.983174264    
   1.68750000      0.275000006       1.07357812      -7.13015813E-03   1.07360184    
   1.68750000      0.324999988       1.13372517      -5.96863218E-03   1.13374090    
   1.68750000      0.375000000       1.17100334      -4.50692419E-03   1.17101204    
   1.68750000      0.425000012       1.19191909      -2.86995596E-03   1.19192255    
   1.68750000      0.475000024       1.20116043      -1.14364782E-03   1.20116091    
   1.68750000      0.524999976       1.20114911       6.09671406E-04   1.20114923    
   1.68750000      0.575000048       1.19188297       2.33570836E-03   1.19188523    
   1.68750000      0.625000000       1.17093670       3.97258578E-03   1.17094338    
   1.68750000      0.675000012       1.13361907       5.43423835E-03   1.13363218    
   1.68750000      0.725000024       1.07342434       6.59567444E-03   1.07344460    
   1.68750000      0.774999976      0.982938051       7.28191994E-03  0.982965052    
   1.68750000      0.825000048      0.855164409       7.26928515E-03  0.855195343    
   1.68750000      0.875000000      0.684519589       6.31257426E-03  0.684548676    
   1.68750000      0.925000012      0.465119779       4.23143059E-03  0.465139031    
   1.68750000      0.975000024      0.183476865       1.44764245E-03  0.183482587    
   1.68750000       1.00000000       0.00000000       0.00000000       0.00000000    
   1.81250000       0.00000000       0.00000000       0.00000000       0.00000000    
   1.81250000       2.50000004E-02  0.183118761      -1.71627500E-03  0.183126807    
   1.81250000       7.50000030E-02  0.462358057      -4.77400608E-03  0.462382704    
   1.81250000      0.125000000      0.678808928      -6.85842242E-03  0.678843558    
   1.81250000      0.175000012      0.846776009      -7.81235425E-03  0.846812069    
   1.81250000      0.224999994      0.972454786      -7.82402791E-03  0.972486258    
   1.81250000      0.275000006       1.06145144      -7.13763945E-03   1.06147540    
   1.81250000      0.324999988       1.12066364      -5.97639754E-03   1.12067962    
   1.81250000      0.375000000       1.15737689      -4.51489538E-03   1.15738571    
   1.81250000      0.425000012       1.17798209      -2.87799397E-03   1.17798555    
   1.81250000      0.475000024       1.18708801      -1.15184742E-03   1.18708849    
   1.81250000      0.524999976       1.18707681       6.01183972E-04   1.18707693    
   1.81250000      0.575000048       1.17794621       2.32706685E-03   1.17794847    
   1.81250000      0.625000000       1.15731049       3.96387093E-03   1.15731728    
   1.81250000      0.675000012       1.12055826       5.42528369E-03   1.12057137    
   1.81250000      0.725000024       1.06129897       6.58632955E-03   1.06131947    
   1.81250000      0.774999976      0.972251773       7.27252336E-03  0.972278953    