 TITLE= "TESTPLOT" 
 VARIABLES="x","y","fx","fy","magf" 
 ZONE T="1", I=          81 , J=          21
   0.00000000       0.00000000       1.00000000       0.00000000       1.00000000    
   0.00000000       2.50000004E-02   1.00000000       0.00000000       1.00000000    
   0.00000000       7.50000030E-02   1.00000000       0.00000000       1.00000000    
   0.00000000      0.125000000       1.00000000       0.00000000       1.00000000    
   0.00000000      0.175000012       1.00000000       0.00000000       1.00000000    
   0.00000000      0.224999994       1.00000000       0.00000000       1.00000000    
   0.00000000      0.275000006       1.00000000       0.00000000       1.00000000    
   0.00000000      0.324999988       1.00000000       0.00000000       1.00000000    
   0.00000000      0.375000000       1.00000000       0.00000000       1.00000000    
   0.00000000      0.425000012       1.00000000       0.00000000       1.00000000    
   0.00000000      0.475000024       1.00000000       0.00000000       1.00000000    
   0.00000000      0.524999976       1.00000000       0.00000000       1.00000000    
   0.00000000      0.575000048       1.00000000       0.00000000       1.00000000    
   0.00000000      0.625000000       1.00000000       0.00000000       1.00000000    
   0.00000000      0.675000012       1.00000000       0.00000000       1.00000000    
   0.00000000      0.725000024       1.00000000       0.00000000       1.00000000    
   0.00000000      0.774999976       1.00000000       0.00000000       1.00000000    
   0.00000000      0.825000048       1.00000000       0.00000000       1.00000000    
   0.00000000      0.875000000       1.00000000       0.00000000       1.00000000    
   0.00000000      0.925000012       1.00000000       0.00000000       1.00000000    
   0.00000000      0.975000024       1.00000000       0.00000000       1.00000000    
   0.00000000       1.00000000       1.00000000       0.00000000       1.00000000    
   6.25000000E-02   0.00000000      0.500000000       0.00000000      0.500000000    
   6.25000000E-02   2.50000004E-02  0.716376066      0.111085132      0.724937618    
   6.25000000E-02   7.50000030E-02  0.919967115      0.251640737      0.953762293    
   6.25000000E-02  0.125000000       1.01072812      0.274281323       1.04728293    
   6.25000000E-02  0.175000012       1.04560030      0.246674463       1.07430363    
   6.25000000E-02  0.224999994       1.05378842      0.201846093       1.07294536    
   6.25000000E-02  0.275000006       1.05049360      0.155061617       1.06187618    
   6.25000000E-02  0.324999988       1.04348826      0.112397715       1.04952419    
   6.25000000E-02  0.375000000       1.03655958       7.53074735E-02   1.03929162    
   6.25000000E-02  0.425000012       1.03141248       4.30475250E-02   1.03231037    
   6.25000000E-02  0.475000024       1.02873087       1.39189865E-02   1.02882504    
   6.25000000E-02  0.524999976       1.02873707      -1.41395023E-02   1.02883422    
   6.25000000E-02  0.575000048       1.03143072      -4.32778560E-02   1.03233826    
   6.25000000E-02  0.625000000       1.03659070      -7.55574554E-02   1.03934073    
   6.25000000E-02  0.675000012       1.04353380     -0.112678327       1.04959953    
   6.25000000E-02  0.725000024       1.05055571     -0.155385181       1.06198478    
   6.25000000E-02  0.774999976       1.05386734     -0.202225119       1.07309425    
   6.25000000E-02  0.825000048       1.04569376     -0.247120172       1.07449698    
   6.25000000E-02  0.875000000       1.01083028     -0.274801075       1.04751778    
   6.25000000E-02  0.925000012      0.920065403     -0.252224714      0.954011321    
   6.25000000E-02  0.975000024      0.716445565     -0.111390166      0.725053072    
   6.25000000E-02   1.00000000      0.500000000       0.00000000      0.500000000    
  0.187500000       0.00000000       0.00000000       0.00000000       0.00000000    
  0.187500000       2.50000004E-02  0.338601887       3.52750346E-02  0.340434372    
  0.187500000       7.50000030E-02  0.729748964      0.112055473      0.738302052    
  0.187500000      0.125000000      0.947868705      0.180430382      0.964888692    
  0.187500000      0.175000012       1.06121719      0.216729343       1.08312213    
  0.187500000      0.224999994       1.11299407      0.221428648       1.13480675    
  0.187500000      0.275000006       1.13063979      0.202274457       1.14859104    
  0.187500000      0.324999988       1.13128197      0.167565346       1.14362454    
  0.187500000      0.375000000       1.12529361      0.123847768       1.13208830    
  0.187500000      0.425000012       1.11868930       7.55067766E-02   1.12123466    
  0.187500000      0.475000024       1.11469960       2.51404569E-02   1.11498308    
  0.187500000      0.524999976       1.11471796      -2.57777590E-02   1.11501598    
  0.187500000      0.575000048       1.11874390      -7.61536136E-02   1.12133276    
  0.187500000      0.625000000       1.12538338     -0.124512464       1.13225043    
  0.187500000      0.675000012       1.13140643     -0.168254048       1.14384878    
  0.187500000      0.725000024       1.13079631     -0.202988893       1.14887106    
  0.187500000      0.774999976       1.11317694     -0.222165212       1.13513005    
  0.187500000      0.825000048       1.06141543     -0.217478633       1.08346653    
  0.187500000      0.875000000      0.948065877     -0.181176946      0.965222299    
  0.187500000      0.925000012      0.729920626     -0.112772629      0.738580942    
  0.187500000      0.975000024      0.338711739      -3.56218554E-02  0.340579748    
  0.187500000       1.00000000       0.00000000       0.00000000       0.00000000    
  0.312500000       0.00000000       0.00000000       0.00000000       0.00000000    
  0.312500000       2.50000004E-02  0.212820739       1.02676339E-02  0.213068292    
  0.312500000       7.50000030E-02  0.558408618       4.24289107E-02  0.560018182    
  0.312500000      0.125000000      0.813171625       8.62009823E-02  0.817727745    
  0.312500000      0.175000012      0.987247884      0.123109728      0.994894147    
  0.312500000      0.224999994       1.09791231      0.143776268       1.10728633    
  0.312500000      0.275000006       1.16287065      0.145817980       1.17197740    
  0.312500000      0.324999988       1.19742131      0.130927026       1.20455790    
  0.312500000      0.375000000       1.21352601      0.102644674       1.21785939    
  0.312500000      0.425000012       1.21975708       6.50146529E-02   1.22148860    
  0.312500000      0.475000024       1.22156739       2.19556503E-02   1.22176468    
  0.312500000      0.524999976       1.22159147      -2.28738114E-02   1.22180557    
  0.312500000      0.575000048       1.21982694      -6.59315884E-02   1.22160745    
  0.312500000      0.625000000       1.21363616     -0.103557840       1.21804631    
  0.312500000      0.675000012       1.19756508     -0.131831616       1.20479941    
  0.312500000      0.725000024       1.16303551     -0.146706700       1.17225194    
  0.312500000      0.774999976       1.09808350     -0.144639403       1.10756850    
  0.312500000      0.825000048      0.987408757     -0.123936556      0.995156467    
  0.312500000      0.875000000      0.813306928      -8.69824141E-02  0.817945004    
  0.312500000      0.925000012      0.558506012      -4.31527495E-02  0.560170650    
  0.312500000      0.975000024      0.212874860      -1.06130419E-02  0.213139251    
  0.312500000       1.00000000       0.00000000       0.00000000       0.00000000    
  0.437500000       0.00000000       0.00000000       0.00000000       0.00000000    
  0.437500000       2.50000004E-02  0.168292895       2.77374289E-03  0.168315753    
  0.437500000       7.50000030E-02  0.466647089       1.52214421E-02  0.466895282    
  0.437500000      0.125000000      0.715117931       3.71077023E-02  0.716080070    
  0.437500000      0.175000012      0.910237789       5.99656701E-02  0.912210882    
  0.437500000      0.224999994       1.05520916       7.69298226E-02   1.05800974    
  0.437500000      0.275000006       1.15723944       8.39693248E-02   1.16028190    
  0.437500000      0.324999988       1.22511744       7.97826797E-02   1.22771251    
  0.437500000      0.375000000       1.26742244       6.51769713E-02   1.26909721    
  0.437500000      0.425000012       1.29134941       4.23606522E-02   1.29204404    
  0.437500000      0.475000024       1.30200458       1.43568348E-02   1.30208373    
  0.437500000      0.524999976       1.30202186      -1.54116945E-02   1.30211306    
  0.437500000      0.575000048       1.29139686      -4.34049591E-02   1.29212606    
  0.437500000      0.625000000       1.26749206      -6.61998317E-02   1.26921964    
  0.437500000      0.675000012       1.22519970      -8.07729959E-02   1.22785938    
  0.437500000      0.725000024       1.15732062      -8.49168003E-02   1.16043174    
  0.437500000      0.774999976       1.05527556      -7.78258741E-02   1.05814147    
  0.437500000      0.825000048      0.910279274      -6.08045906E-02  0.912307799    
  0.437500000      0.875000000      0.715133786      -3.78886759E-02  0.716136813    
  0.437500000      0.925000012      0.466646850      -1.59411654E-02  0.466919065    
  0.437500000      0.975000024      0.168299317      -3.11720651E-03  0.168328181    
  0.437500000       1.00000000       0.00000000       0.00000000       0.00000000    
  0.562500000       0.00000000       0.00000000       0.00000000       0.00000000    
  0.562500000       2.50000004E-02  0.149351954       3.25050532E-05  0.149351954    
  0.562500000       7.50000030E-02  0.420336783       3.77797475E-03  0.420353770    
  0.562500000      0.125000000      0.657179236       1.33234393E-02  0.657314301    
  0.562500000      0.175000012      0.855925441       2.51072906E-02  0.856293619    
  0.562500000      0.224999994       1.01577210       3.53886858E-02   1.01638842    
  0.562500000      0.275000006       1.13873899       4.12722304E-02   1.13948667    
  0.562500000      0.324999988       1.22876966       4.11470756E-02   1.22945845    
  0.562500000      0.375000000       1.29063487       3.47560421E-02   1.29110277    
  0.562500000      0.425000012       1.32889628       2.30178274E-02   1.32909560    
  0.562500000      0.475000024       1.34707570       7.72385113E-03   1.34709787    
  0.562500000      0.524999976       1.34707713      -8.80880468E-03   1.34710598    
  0.562500000      0.575000048       1.32889605      -2.40880679E-02   1.32911432    
  0.562500000      0.625000000       1.29062629      -3.57972011E-02   1.29112256    
  0.562500000      0.675000012       1.22874546      -4.21467498E-02   1.22946811    
  0.562500000      0.725000024       1.13869119      -4.22205105E-02   1.13947368    
  0.562500000      0.774999976       1.01569676      -3.62790450E-02   1.01634455    
  0.562500000      0.825000048      0.855824828      -2.59376802E-02  0.856217802    
  0.562500000      0.875000000      0.657068372      -1.40964398E-02  0.657219589    
  0.562500000      0.925000012      0.420244515      -4.49273642E-03  0.420268536    
  0.562500000      0.975000024      0.149319798      -3.74484109E-04  0.149320275    
  0.562500000       1.00000000       0.00000000       0.00000000       0.00000000    
  0.687500000       0.00000000       0.00000000       0.00000000       0.00000000    
  0.687500000       2.50000004E-02  0.140164927      -1.12781278E-03  0.140169472    
  0.687500000       7.50000030E-02  0.396027684      -1.38212193E-03  0.396030098    
  0.687500000      0.125000000      0.623892903       1.84286444E-03  0.623895645    
  0.687500000      0.175000012      0.820998192       7.08619924E-03  0.821028769    
  0.687500000      0.224999994      0.985912085       1.24658383E-02  0.985990882    
  0.687500000      0.275000006       1.11870492       1.62881091E-02   1.11882353    
  0.687500000      0.324999988       1.22074485       1.73857417E-02   1.22086871    
  0.687500000      0.375000000       1.29421520       1.53037403E-02   1.29430568    
  0.687500000      0.425000012       1.34149599       1.03194220E-02   1.34153569    
  0.687500000      0.475000024       1.36456919       3.32589587E-03   1.36457324    
  0.687500000      0.524999976       1.36455178      -4.37895535E-03   1.36455882    
  0.687500000      0.575000048       1.34143984      -1.13574993E-02   1.34148788    
  0.687500000      0.625000000       1.29411817      -1.63131617E-02   1.29422092    
  0.687500000      0.675000012       1.22060490      -1.83547847E-02   1.22074282    
  0.687500000      0.725000024       1.11852288      -1.72081850E-02   1.11865520    
  0.687500000      0.774999976      0.985695183      -1.33321006E-02  0.985785365    
  0.687500000      0.825000048      0.820762515      -7.89799355E-03  0.820800543    
  0.687500000      0.875000000      0.623667240      -2.60398141E-03  0.623672724    
  0.687500000      0.925000012      0.395855367       6.72859896E-04  0.395855933    
  0.687500000      0.975000024      0.140101075       7.87160010E-04  0.140103281    
  0.687500000       1.00000000       0.00000000       0.00000000       0.00000000    
  0.812500000       0.00000000       0.00000000       0.00000000       0.00000000    
  0.812500000       2.50000004E-02  0.135169506      -1.64382695E-03  0.135179505    
  0.812500000       7.50000030E-02  0.382174432      -3.75711522E-03  0.382192880    
  0.812500000      0.125000000      0.603727102      -3.64245707E-03  0.603738070    
  0.812500000      0.175000012      0.797968507      -1.86615973E-03  0.797970653    
  0.812500000      0.224999994      0.963606656       6.33986201E-04  0.963606894    
  0.812500000      0.275000006       1.10008597       2.92914966E-03   1.10008991    
  0.812500000      0.324999988       1.20758867       4.29025292E-03   1.20759630    
  0.812500000      0.375000000       1.28685915       4.32642968E-03   1.28686643    
  0.812500000      0.425000012       1.33890009       3.04095540E-03   1.33890355    
  0.812500000      0.475000024       1.36463070       7.97741581E-04   1.36463094    
  0.812500000      0.524999976       1.36459517      -1.78983063E-03   1.36459637    
  0.812500000      0.575000048       1.33879209      -4.01982805E-03   1.33879817    
  0.812500000      0.625000000       1.28668070      -5.28033776E-03   1.28669155    
  0.812500000      0.675000012       1.20734417      -5.20987716E-03   1.20735550    
  0.812500000      0.725000024       1.09978533      -3.80762154E-03   1.09979188    
  0.812500000      0.774999976      0.963267565      -1.46783260E-03  0.963268697    
  0.812500000      0.825000048      0.797618449       1.07666873E-03  0.797619164    
  0.812500000      0.875000000      0.603406191       2.89438339E-03  0.603413105    
  0.812500000      0.925000012      0.381936729       3.05368612E-03  0.381948948    
  0.812500000      0.975000024      0.135079890       1.30458409E-03  0.135086194    
  0.812500000       1.00000000       0.00000000       0.00000000       0.00000000    
  0.937500000       0.00000000       0.00000000       0.00000000       0.00000000    
  0.937500000       2.50000004E-02  0.132033080      -1.87157758E-03  0.132046342    
  0.937500000       7.50000030E-02  0.373229563      -4.83298628E-03  0.373260856    
  0.937500000      0.125000000      0.590116739      -6.19343575E-03  0.590149224    
  0.937500000      0.175000012      0.781359196      -6.14032522E-03  0.781383336    
  0.937500000      0.224999994      0.945880055      -5.16046444E-03  0.945894122    
  0.937500000      0.275000006       1.08296061      -3.76720587E-03   1.08296716    
  0.937500000      0.324999988       1.19228029      -2.40615546E-03   1.19228268    
  0.937500000      0.375000000       1.27386880      -1.37384841E-03   1.27386951    
  0.937500000      0.425000012       1.32797635      -7.73862470E-04   1.32797658    
  0.937500000      0.475000024       1.35490549      -5.22377726E-04   1.35490561    
  0.937500000      0.524999976       1.35485506      -3.99952696E-04   1.35485506    
  0.937500000      0.575000048       1.32782614      -1.38466334E-04   1.32782614    
  0.937500000      0.625000000       1.27362394       4.80525719E-04   1.27362406    
  0.937500000      0.675000012       1.19195139       1.53940578E-03   1.19195235    
  0.937500000      0.725000024       1.08256447       2.93226773E-03   1.08256841    
  0.937500000      0.774999976      0.945443988       4.35994612E-03  0.945454061    
  0.937500000      0.825000048      0.780919552       5.37391379E-03  0.780938029    
  0.937500000      0.875000000      0.589722037       5.45863807E-03  0.589747310    
  0.937500000      0.925000012      0.372942150       4.13494790E-03  0.372965068    
  0.937500000      0.975000024      0.131924480       1.53342634E-03  0.131933391    
  0.937500000       1.00000000       0.00000000       0.00000000       0.00000000    
   1.06250000       0.00000000       0.00000000       0.00000000       0.00000000    
   1.06250000       2.50000004E-02  0.129704803      -1.96735864E-03  0.129719719    
   1.06250000       7.50000030E-02  0.366522431      -5.29911928E-03  0.366560727    
   1.06250000      0.125000000      0.579627275      -7.32757058E-03  0.579673588    
   1.06250000      0.175000012      0.767961860      -8.08416121E-03  0.768004417    
   1.06250000      0.224999994      0.930606484      -7.84997642E-03  0.930639625    
   1.06250000      0.275000006       1.06682515      -6.93189492E-03   1.06684768    
   1.06250000      0.324999988       1.17610204      -5.61864581E-03   1.17611551    
   1.06250000      0.375000000       1.25814009      -4.13892325E-03   1.25814688    
   1.06250000      0.425000012       1.31281829      -2.63477489E-03   1.31282091    
   1.06250000      0.475000024       1.34011912      -1.15909707E-03   1.34011960    
   1.06250000      0.524999976       1.34005785       3.01449618E-04   1.34005785    
   1.06250000      0.575000048       1.31263649       1.78439764E-03   1.31263769    
   1.06250000      0.625000000       1.25784540       3.30259721E-03   1.25784969    
   1.06250000      0.675000012       1.17570961       4.80179256E-03   1.17571938    
   1.06250000      0.725000024       1.06635833       6.13781624E-03   1.06637597    
   1.06250000      0.774999976      0.930099130       7.08033051E-03  0.930126071    
   1.06250000      0.825000048      0.767457366       7.33877532E-03  0.767492473    
   1.06250000      0.875000000      0.579180360       6.60496391E-03  0.579218030    
   1.06250000      0.925000012      0.366200566       4.60635545E-03  0.366229534    
   1.06250000      0.975000024      0.129583776       1.63038005E-03  0.129594028    
   1.06250000       1.00000000       0.00000000       0.00000000       0.00000000    
   1.18750000       0.00000000       0.00000000       0.00000000       0.00000000    
   1.18750000       2.50000004E-02  0.127708912      -2.00433424E-03  0.127724648    
   1.18750000       7.50000030E-02  0.360786557      -5.48699545E-03  0.360828251    
   1.18750000      0.125000000      0.570546985      -7.79964495E-03  0.570600271    
   1.18750000      0.175000012      0.756073415      -8.91372189E-03  0.756125927    
   1.18750000      0.224999994      0.916543424      -9.02156066E-03  0.916587770    
   1.18750000      0.275000006       1.05124259      -8.33388045E-03   1.05127561    
   1.18750000      0.324999988       1.15958977      -7.06044352E-03   1.15961123    
   1.18750000      0.375000000       1.24115157      -5.39054675E-03   1.24116325    
   1.18750000      0.425000012       1.29563987      -3.47852521E-03   1.29564452    
   1.18750000      0.475000024       1.32288611      -1.44005578E-03   1.32288682    
   1.18750000      0.524999976       1.32281780       6.38341298E-04   1.32281792    
   1.18750000      0.575000048       1.29543614       2.68149632E-03   1.29543889    
   1.18750000      0.625000000       1.24082184       4.60284809E-03   1.24083042    
   1.18750000      0.675000012       1.15915310       6.28534053E-03   1.15917015    
   1.18750000      0.725000024       1.05072784       7.57368654E-03   1.05075514    
   1.18750000      0.774999976      0.915988445       8.27735849E-03  0.916025817    
   1.18750000      0.825000048      0.755526245       8.18526652E-03  0.755570590    
   1.18750000      0.875000000      0.570066452       7.08673568E-03  0.570110500    
   1.18750000      0.925000012      0.360442936       4.79839696E-03  0.360474885    
   1.18750000      0.975000024      0.127580062       1.66829990E-03  0.127590969    
   1.18750000       1.00000000       0.00000000       0.00000000       0.00000000    
   1.31250000       0.00000000       0.00000000       0.00000000       0.00000000    
   1.31250000       2.50000004E-02  0.125836492      -2.01651431E-03  0.125852644    
   1.31250000       7.50000030E-02  0.355441779      -5.55378338E-03  0.355485171    
   1.31250000      0.125000000      0.562061429      -7.97656551E-03  0.562118053    
   1.31250000      0.175000012      0.744848371      -9.23645310E-03  0.744905591    
   1.31250000      0.224999994      0.903036594      -9.49006714E-03  0.903086483    
   1.31250000      0.275000006       1.03593850      -8.90604407E-03   1.03597677    
   1.31250000      0.324999988       1.14295959      -7.65754282E-03   1.14298522    
   1.31250000      0.375000000       1.22361851      -5.91323990E-03   1.22363281    
   1.31250000      0.425000012       1.27755833      -3.83008318E-03   1.27756405    
   1.31250000      0.475000024       1.30454755      -1.55086478E-03   1.30454850    
   1.31250000      0.524999976       1.30447435       7.93166750E-04   1.30447459    
   1.31250000      0.575000048       1.27734065       3.07508605E-03   1.27734435    
   1.31250000      0.625000000       1.22326660       5.16348658E-03   1.22327757    
   1.31250000      0.675000012       1.14249611       6.91513903E-03   1.14251709    
   1.31250000      0.725000024       1.03539443       8.17233697E-03   1.03542662    
   1.31250000      0.774999976      0.902453065       8.76563787E-03  0.902495623    
   1.31250000      0.825000048      0.744276345       8.52134079E-03  0.744325101    
   1.31250000      0.875000000      0.561562240       7.27138110E-03  0.561609328    
   1.31250000      0.925000012      0.355086386       4.86853393E-03  0.355119765    
   1.31250000      0.975000024      0.125703394       1.68123352E-03  0.125714630    
   1.31250000       1.00000000       0.00000000       0.00000000       0.00000000    
   1.43750000       0.00000000       0.00000000       0.00000000       0.00000000    
   1.43750000       2.50000004E-02  0.124001205      -2.01926613E-03  0.124017641    
   1.43750000       7.50000030E-02  0.350235343      -5.57225570E-03  0.350279659    
   1.43750000      0.125000000      0.553802848      -8.03140830E-03  0.553861082    
   1.43750000      0.175000012      0.733890414      -9.34371818E-03  0.733949900    
   1.43750000      0.224999994      0.889765441      -9.65321250E-03  0.889817774    
   1.43750000      0.275000006       1.02076340      -9.11166146E-03   1.02080405    
   1.43750000      0.324999988       1.12629533      -7.87633751E-03   1.12632287    
   1.43750000      0.375000000       1.20586848      -6.10641763E-03   1.20588398    
   1.43750000      0.425000012       1.25910378      -3.95878125E-03   1.25910997    
   1.43750000      0.475000024       1.28574681      -1.58647308E-03   1.28574777    
   1.43750000      0.524999976       1.28567052       8.60787404E-04   1.28567088    
   1.43750000      0.575000048       1.25887823       3.23460065E-03   1.25888240    
   1.43750000      0.625000000       1.20550489       5.38495323E-03   1.20551693    
   1.43750000      0.675000012       1.12581754       7.15832599E-03   1.12584031    
   1.43750000      0.725000024       1.02020454       8.39738175E-03   1.02023911    
   1.43750000      0.774999976      0.889168501       8.94287042E-03  0.889213502    
   1.43750000      0.825000048      0.733307660       8.63774866E-03  0.733358502    
   1.43750000      0.875000000      0.553296447       7.33113848E-03  0.553345025    
   1.43750000      0.925000012      0.349876016       4.88890661E-03  0.349910170    
   1.43750000      0.975000024      0.123867057       1.68436242E-03  0.123878509    
   1.43750000       1.00000000       0.00000000       0.00000000       0.00000000    
   1.56250000       0.00000000       0.00000000       0.00000000       0.00000000    
   1.56250000       2.50000004E-02  0.122171611      -2.01883703E-03  0.122188292    
   1.56250000       7.50000030E-02  0.345066518      -5.57350926E-03  0.345111519    
   1.56250000      0.125000000      0.545617402      -8.04062560E-03  0.545676649    
   1.56250000      0.175000012      0.723027110      -9.36764479E-03  0.723087788    
   1.56250000      0.224999994      0.876584828      -9.69524030E-03  0.876638472    
   1.56250000      0.275000006       1.00564337      -9.16916318E-03   1.00568509    
   1.56250000      0.324999988       1.10962605      -7.94025324E-03   1.10965443    
   1.56250000      0.375000000       1.18804288      -6.16340246E-03   1.18805885    
   1.56250000      0.425000012       1.24051213      -3.99510609E-03   1.24051857    
   1.56250000      0.475000024       1.26677322      -1.59204192E-03   1.26677418    
   1.56250000      0.524999976       1.26669586       8.89162009E-04   1.26669621    
   1.56250000      0.575000048       1.24028349       3.29233031E-03   1.24028790    
   1.56250000      0.625000000       1.18767524       5.46115823E-03   1.18768775    
   1.56250000      0.675000012       1.10914373       7.23849563E-03   1.10916734    
   1.56250000      0.725000024       1.00508046       8.46778788E-03   1.00511611    
   1.56250000      0.774999976      0.875984848       8.99452809E-03  0.876031041    
   1.56250000      0.825000048      0.722443223       8.66819173E-03  0.722495258    
   1.56250000      0.875000000      0.545111239       7.34420586E-03  0.545160711    
   1.56250000      0.925000012      0.344708443       4.89186822E-03  0.344743162    
   1.56250000      0.975000024      0.122038275       1.68430759E-03  0.122049898    
   1.56250000       1.00000000       0.00000000       0.00000000       0.00000000    
   1.68750000       0.00000000       0.00000000       0.00000000       0.00000000    
   1.68750000       2.50000004E-02  0.120338686      -2.01787753E-03  0.120355599    
   1.68750000       7.50000030E-02  0.339900285      -5.57045080E-03  0.339945942    
   1.68750000      0.125000000      0.537446558      -8.03634152E-03  0.537506640    
   1.68750000      0.175000012      0.712189436      -9.36452672E-03  0.712250948    
   1.68750000      0.224999994      0.863432646      -9.69531946E-03  0.863487065    
   1.68750000      0.275000006      0.990544617      -9.17327497E-03  0.990587115    
   1.68750000      0.324999988       1.09296036      -7.94741325E-03   1.09298921    
   1.68750000      0.375000000       1.17019820      -6.17065886E-03   1.17021441    
   1.68750000      0.425000012       1.22188020      -3.99866514E-03   1.22188675    
   1.68750000      0.475000024       1.24774766      -1.58882653E-03   1.24774873    
   1.68750000      0.524999976       1.24767041       9.00150975E-04   1.24767077    
   1.68750000      0.575000048       1.22165203       3.30943242E-03   1.22165656    
   1.68750000      0.625000000       1.16983128       5.48064709E-03   1.16984415    
   1.68750000      0.675000012       1.09247971       7.25616049E-03   1.09250391    
   1.68750000      0.725000024      0.989984512       8.48029181E-03  0.990020871    
   1.68750000      0.774999976      0.862836719       9.00053792E-03  0.862883687    
   1.68750000      0.825000048      0.711610198       8.66870303E-03  0.711663008    
   1.68750000      0.875000000      0.536945462       7.34170899E-03  0.536995649    
   1.68750000      0.925000012      0.339546353       4.88940720E-03  0.339581549    
   1.68750000      0.975000024      0.120207161       1.68348185E-03  0.120218948    
   1.68750000       1.00000000       0.00000000       0.00000000       0.00000000    
   1.81250000       0.00000000       0.00000000       0.00000000       0.00000000    
   1.81250000       2.50000004E-02  0.118501380      -2.01695459E-03  0.118518539    
   1.81250000       7.50000030E-02  0.334727287      -5.56690618E-03  0.334773570    
   1.81250000      0.125000000      0.529271960      -8.02951865E-03  0.529332876    
   1.81250000      0.175000012      0.701352894      -9.35516506E-03  0.701415300    
   1.81250000      0.224999994      0.850285649      -9.68498271E-03  0.850340843    
   1.81250000      0.275000006      0.975452363      -9.16326046E-03  0.975495398    
   1.81250000      0.324999988       1.07629895      -7.93858338E-03   1.07632828    
   1.81250000      0.375000000       1.15235281      -6.16325764E-03   1.15236926    
   1.81250000      0.425000012       1.20324242      -3.99258872E-03   1.20324910    
   1.81250000      0.475000024       1.22871327      -1.58424058E-03   1.22871435    
   1.81250000      0.524999976       1.22863710       9.03286738E-04   1.22863746    
   1.81250000      0.575000048       1.20301723       3.31097282E-03   1.20302176    
   1.81250000      0.625000000       1.15199018       5.48007153E-03   1.15200317    
   1.81250000      0.675000012       1.07582426       7.25298468E-03   1.07584870    
   1.81250000      0.725000024      0.974899590       8.47463682E-03  0.974936426    
   1.81250000      0.774999976      0.849698067       8.99331830E-03  0.849745691    