 TITLE= "TESTPLOT" 
 VARIABLES="x","y","fx","fy","magf" 
 ZONE T="1", I=          81 , J=          21
   0.00000000       0.00000000       1.00000000       0.00000000       1.00000000    
   0.00000000       2.50000004E-02   1.00000000       0.00000000       1.00000000    
   0.00000000       7.50000030E-02   1.00000000       0.00000000       1.00000000    
   0.00000000      0.125000000       1.00000000       0.00000000       1.00000000    
   0.00000000      0.175000012       1.00000000       0.00000000       1.00000000    
   0.00000000      0.224999994       1.00000000       0.00000000       1.00000000    
   0.00000000      0.275000006       1.00000000       0.00000000       1.00000000    
   0.00000000      0.324999988       1.00000000       0.00000000       1.00000000    
   0.00000000      0.375000000       1.00000000       0.00000000       1.00000000    
   0.00000000      0.425000012       1.00000000       0.00000000       1.00000000    
   0.00000000      0.475000024       1.00000000       0.00000000       1.00000000    
   0.00000000      0.524999976       1.00000000       0.00000000       1.00000000    
   0.00000000      0.575000048       1.00000000       0.00000000       1.00000000    
   0.00000000      0.625000000       1.00000000       0.00000000       1.00000000    
   0.00000000      0.675000012       1.00000000       0.00000000       1.00000000    
   0.00000000      0.725000024       1.00000000       0.00000000       1.00000000    
   0.00000000      0.774999976       1.00000000       0.00000000       1.00000000    
   0.00000000      0.825000048       1.00000000       0.00000000       1.00000000    
   0.00000000      0.875000000       1.00000000       0.00000000       1.00000000    
   0.00000000      0.925000012       1.00000000       0.00000000       1.00000000    
   0.00000000      0.975000024       1.00000000       0.00000000       1.00000000    
   0.00000000       1.00000000       1.00000000       0.00000000       1.00000000    
   6.25000000E-02   0.00000000      0.500000000       0.00000000      0.500000000    
   6.25000000E-02   2.50000004E-02  0.716381192      0.111083426      0.724942446    
   6.25000000E-02   7.50000030E-02  0.919971704      0.251635879      0.953765452    
   6.25000000E-02  0.125000000       1.01073027      0.274274588       1.04728329    
   6.25000000E-02  0.175000012       1.04560137      0.246667653       1.07430303    
   6.25000000E-02  0.224999994       1.05378914      0.201839924       1.07294500    
   6.25000000E-02  0.275000006       1.05049384      0.155056149       1.06187558    
   6.25000000E-02  0.324999988       1.04348898      0.112392902       1.04952431    
   6.25000000E-02  0.375000000       1.03656054       7.53033161E-02   1.03929222    
   6.25000000E-02  0.425000012       1.03141332       4.30441312E-02   1.03231108    
   6.25000000E-02  0.475000024       1.02873182       1.39161758E-02   1.02882600    
   6.25000000E-02  0.524999976       1.02873826      -1.41417393E-02   1.02883554    
   6.25000000E-02  0.575000048       1.03143191      -4.32792157E-02   1.03233957    
   6.25000000E-02  0.625000000       1.03659153      -7.55575895E-02   1.03934157    
   6.25000000E-02  0.675000012       1.04353487     -0.112677246       1.04960048    
   6.25000000E-02  0.725000024       1.05055702     -0.155383140       1.06198585    
   6.25000000E-02  0.774999976       1.05386829     -0.202222064       1.07309473    
   6.25000000E-02  0.825000048       1.04569530     -0.247116208       1.07449758    
   6.25000000E-02  0.875000000       1.01083279     -0.274796844       1.04751909    
   6.25000000E-02  0.925000012      0.920070410     -0.252221286      0.954015255    
   6.25000000E-02  0.975000024      0.716451228     -0.111388825      0.725058556    
   6.25000000E-02   1.00000000      0.500000000       0.00000000      0.500000000    
  0.187500000       0.00000000       0.00000000       0.00000000       0.00000000    
  0.187500000       2.50000004E-02  0.338618279       3.52729559E-02  0.340450466    
  0.187500000       7.50000030E-02  0.729764044      0.112049326      0.738316059    
  0.187500000      0.125000000      0.947876096      0.180421323      0.964894295    
  0.187500000      0.175000012       1.06122005      0.216719478       1.08312297    
  0.187500000      0.224999994       1.11299539      0.221419364       1.13480628    
  0.187500000      0.275000006       1.13064051      0.202266216       1.14859033    
  0.187500000      0.324999988       1.13128376      0.167558119       1.14362526    
  0.187500000      0.375000000       1.12529564      0.123841822       1.13208973    
  0.187500000      0.425000012       1.11869133       7.55024254E-02   1.12123632    
  0.187500000      0.475000024       1.11470175       2.51375511E-02   1.11498523    
  0.187500000      0.524999976       1.11472082      -2.57792212E-02   1.11501884    
  0.187500000      0.575000048       1.11874676      -7.61536881E-02   1.12133563    
  0.187500000      0.625000000       1.12538600     -0.124511689       1.13225305    
  0.187500000      0.675000012       1.13140869     -0.168252259       1.14385080    
  0.187500000      0.725000024       1.13079858     -0.202985287       1.14887273    
  0.187500000      0.774999976       1.11317849     -0.222159624       1.13513052    
  0.187500000      0.825000048       1.06141889     -0.217471689       1.08346844    
  0.187500000      0.875000000      0.948073387     -0.181170195      0.965228379    
  0.187500000      0.925000012      0.729936004     -0.112767950      0.738595426    
  0.187500000      0.975000024      0.338728517      -3.56202684E-02  0.340596259    
  0.187500000       1.00000000       0.00000000       0.00000000       0.00000000    
  0.312500000       0.00000000       0.00000000       0.00000000       0.00000000    
  0.312500000       2.50000004E-02  0.212848425       1.02654910E-02  0.213095829    
  0.312500000       7.50000030E-02  0.558434844       4.24224511E-02  0.560043871    
  0.312500000      0.125000000      0.813184977       8.61914530E-02  0.817740023    
  0.312500000      0.175000012      0.987252295      0.123099335      0.994897246    
  0.312500000      0.224999994       1.09791327      0.143766403       1.10728598    
  0.312500000      0.275000006       1.16287208      0.145809442       1.17197776    
  0.312500000      0.324999988       1.19742358      0.130920142       1.20455933    
  0.312500000      0.375000000       1.21352875      0.102639042       1.21786153    
  0.312500000      0.425000012       1.21976042       6.50099069E-02   1.22149169    
  0.312500000      0.475000024       1.22157097       2.19521839E-02   1.22176814    
  0.312500000      0.524999976       1.22159529      -2.28759162E-02   1.22180951    
  0.312500000      0.575000048       1.21983099      -6.59322590E-02   1.22161150    
  0.312500000      0.625000000       1.21363997     -0.103557035       1.21805012    
  0.312500000      0.675000012       1.19756770     -0.131829128       1.20480180    
  0.312500000      0.725000024       1.16303778     -0.146702200       1.17225361    
  0.312500000      0.774999976       1.09808540     -0.144633085       1.10756958    
  0.312500000      0.825000048      0.987413764     -0.123928919      0.995160460    
  0.312500000      0.875000000      0.813320398      -8.69747996E-02  0.817957640    
  0.312500000      0.925000012      0.558533192      -4.31473441E-02  0.560197294    
  0.312500000      0.975000024      0.212903500      -1.06111662E-02  0.213167772    
  0.312500000       1.00000000       0.00000000       0.00000000       0.00000000    
  0.437500000       0.00000000       0.00000000       0.00000000       0.00000000    
  0.437500000       2.50000004E-02  0.168331653       2.77198222E-03  0.168354467    
  0.437500000       7.50000030E-02  0.466685206       1.52156334E-02  0.466933191    
  0.437500000      0.125000000      0.715137899       3.70986797E-02  0.716099560    
  0.437500000      0.175000012      0.910244823       5.99560291E-02  0.912217259    
  0.437500000      0.224999994       1.05521107       7.69207105E-02   1.05801105    
  0.437500000      0.275000006       1.15724158       8.39609504E-02   1.16028345    
  0.437500000      0.324999988       1.22512031       7.97755793E-02   1.22771490    
  0.437500000      0.375000000       1.26742637       6.51714057E-02   1.26910079    
  0.437500000      0.425000012       1.29135323       4.23567258E-02   1.29204774    
  0.437500000      0.475000024       1.30200887       1.43542429E-02   1.30208802    
  0.437500000      0.524999976       1.30202579      -1.54130133E-02   1.30211699    
  0.437500000      0.575000048       1.29140079      -4.34045270E-02   1.29212999    
  0.437500000      0.625000000       1.26749611      -6.61976784E-02   1.26922357    
  0.437500000      0.675000012       1.22520292      -8.07696730E-02   1.22786236    
  0.437500000      0.725000024       1.15732324      -8.49120766E-02   1.16043401    
  0.437500000      0.774999976       1.05527842      -7.78194964E-02   1.05814385    
  0.437500000      0.825000048      0.910287142      -6.07971288E-02  0.912315190    
  0.437500000      0.875000000      0.715154231      -3.78812775E-02  0.716156781    
  0.437500000      0.925000012      0.466686457      -1.59358699E-02  0.466958463    
  0.437500000      0.975000024      0.168340504      -3.11538531E-03  0.168369338    
  0.437500000       1.00000000       0.00000000       0.00000000       0.00000000    
  0.562500000       0.00000000       0.00000000       0.00000000       0.00000000    
  0.562500000       2.50000004E-02  0.149403512       3.09660827E-05  0.149403512    
  0.562500000       7.50000030E-02  0.420387745       3.77310230E-03  0.420404673    
  0.562500000      0.125000000      0.657206178       1.33159496E-02  0.657341063    
  0.562500000      0.175000012      0.855935693       2.50991136E-02  0.856303632    
  0.562500000      0.224999994       1.01577568       3.53808254E-02   1.01639175    
  0.562500000      0.275000006       1.13874221       4.12650481E-02   1.13948965    
  0.562500000      0.324999988       1.22877359       4.11405489E-02   1.22946215    
  0.562500000      0.375000000       1.29063940       3.47505733E-02   1.29110718    
  0.562500000      0.425000012       1.32889974       2.30140947E-02   1.32909906    
  0.562500000      0.475000024       1.34707952       7.72195170E-03   1.34710169    
  0.562500000      0.524999976       1.34708154      -8.80881771E-03   1.34711039    
  0.562500000      0.575000048       1.32890010      -2.40867361E-02   1.32911837    
  0.562500000      0.625000000       1.29063070      -3.57947722E-02   1.29112697    
  0.562500000      0.675000012       1.22874892      -4.21429202E-02   1.22947145    
  0.562500000      0.725000024       1.13869357      -4.22150046E-02   1.13947582    
  0.562500000      0.774999976       1.01570010      -3.62721793E-02   1.01634765    
  0.562500000      0.825000048      0.855835319      -2.59303674E-02  0.856228054    
  0.562500000      0.875000000      0.657095432      -1.40896272E-02  0.657246470    
  0.562500000      0.925000012      0.420296073      -4.48806817E-03  0.420320034    
  0.562500000      0.975000024      0.149372309      -3.72975162E-04  0.149372771    
  0.562500000       1.00000000       0.00000000       0.00000000       0.00000000    
  0.687500000       0.00000000       0.00000000       0.00000000       0.00000000    
  0.687500000       2.50000004E-02  0.140229553      -1.12938345E-03  0.140234098    
  0.687500000       7.50000030E-02  0.396090984      -1.38707703E-03  0.396093398    
  0.687500000      0.125000000      0.623926520       1.83542178E-03  0.623929203    
  0.687500000      0.175000012      0.821011186       7.07835658E-03  0.821041703    
  0.687500000      0.224999994      0.985916853       1.24589540E-02  0.985995591    
  0.687500000      0.275000006       1.11870861       1.62824914E-02   1.11882710    
  0.687500000      0.324999988       1.22074914       1.73813067E-02   1.22087288    
  0.687500000      0.375000000       1.29421973       1.53004657E-02   1.29431021    
  0.687500000      0.425000012       1.34149992       1.03173451E-02   1.34153962    
  0.687500000      0.475000024       1.36457396       3.32488655E-03   1.36457801    
  0.687500000      0.524999976       1.36455750      -4.37919004E-03   1.36456454    
  0.687500000      0.575000048       1.34144425      -1.13567989E-02   1.34149230    
  0.687500000      0.625000000       1.29412246      -1.63112320E-02   1.29422522    
  0.687500000      0.675000012       1.22060823      -1.83514245E-02   1.22074616    
  0.687500000      0.725000024       1.11852479      -1.72031391E-02   1.11865711    
  0.687500000      0.774999976      0.985698879      -1.33254211E-02  0.985788941    
  0.687500000      0.825000048      0.820774317      -7.89031107E-03  0.820812225    
  0.687500000      0.875000000      0.623700261      -2.59641930E-03  0.623705685    
  0.687500000      0.925000012      0.395918608       6.78453071E-04  0.395919204    
  0.687500000      0.975000024      0.140165314       7.89166545E-04  0.140167534    
  0.687500000       1.00000000       0.00000000       0.00000000       0.00000000    
  0.812500000       0.00000000       0.00000000       0.00000000       0.00000000    
  0.812500000       2.50000004E-02  0.135245949      -1.64527528E-03  0.135255948    
  0.812500000       7.50000030E-02  0.382250071      -3.76135297E-03  0.382268548    
  0.812500000      0.125000000      0.603767991      -3.64875793E-03  0.603779018    
  0.812500000      0.175000012      0.797984481      -1.87299284E-03  0.797986686    
  0.812500000      0.224999994      0.963612378       6.27680623E-04  0.963612616    
  0.812500000      0.275000006       1.10009027       2.92398874E-03   1.10009420    
  0.812500000      0.324999988       1.20759296       4.28638374E-03   1.20760059    
  0.812500000      0.375000000       1.28686333       4.32375725E-03   1.28687060    
  0.812500000      0.425000012       1.33890533       3.03929998E-03   1.33890879    
  0.812500000      0.475000024       1.36463714       7.96924694E-04   1.36463737    
  0.812500000      0.524999976       1.36460161      -1.78937777E-03   1.36460280    
  0.812500000      0.575000048       1.33879709      -4.01850417E-03   1.33880317    
  0.812500000      0.625000000       1.28668439      -5.27798058E-03   1.28669524    
  0.812500000      0.675000012       1.20734739      -5.20611322E-03   1.20735860    
  0.812500000      0.725000024       1.09978747      -3.80287319E-03   1.09979403    
  0.812500000      0.774999976      0.963271439      -1.46218319E-03  0.963272572    
  0.812500000      0.825000048      0.797632277       1.08303584E-03  0.797632992    
  0.812500000      0.875000000      0.603445470       2.90066795E-03  0.603452444    
  0.812500000      0.925000012      0.382011950       3.05826357E-03  0.382024199    
  0.812500000      0.975000024      0.135156900       1.30620727E-03  0.135163218    
  0.812500000       1.00000000       0.00000000       0.00000000       0.00000000    
  0.937500000       0.00000000       0.00000000       0.00000000       0.00000000    
  0.937500000       2.50000004E-02  0.132121310      -1.87271507E-03  0.132134587    
  0.937500000       7.50000030E-02  0.373317719      -4.83660586E-03  0.373349041    
  0.937500000      0.125000000      0.590164959      -6.19891984E-03  0.590197504    
  0.937500000      0.175000012      0.781378269      -6.14632061E-03  0.781402469    
  0.937500000      0.224999994      0.945886970      -5.16591594E-03  0.945901096    
  0.937500000      0.275000006       1.08296561      -3.77165200E-03   1.08297217    
  0.937500000      0.324999988       1.19228566      -2.40966817E-03   1.19228804    
  0.937500000      0.375000000       1.27387404      -1.37673970E-03   1.27387476    
  0.937500000      0.425000012       1.32798338      -7.76036526E-04   1.32798362    
  0.937500000      0.475000024       1.35491252      -5.23067778E-04   1.35491264    
  0.937500000      0.524999976       1.35486209      -3.99192824E-04   1.35486209    
  0.937500000      0.575000048       1.32783258      -1.36650764E-04   1.32783258    
  0.937500000      0.625000000       1.27362871       4.83055483E-04   1.27362883    
  0.937500000      0.675000012       1.19195497       1.54278986E-03   1.19195604    
  0.937500000      0.725000024       1.08256757       2.93659326E-03   1.08257151    
  0.937500000      0.774999976      0.945448875       4.36506420E-03  0.945458949    
  0.937500000      0.825000048      0.780936480       5.38008148E-03  0.780955017    
  0.937500000      0.875000000      0.589768589       5.46515267E-03  0.589793921    
  0.937500000      0.925000012      0.373029530       4.13957611E-03  0.373052508    
  0.937500000      0.975000024      0.132012859       1.53488829E-03  0.132021785    
  0.937500000       1.00000000       0.00000000       0.00000000       0.00000000    
   1.06250000       0.00000000       0.00000000       0.00000000       0.00000000    
   1.06250000       2.50000004E-02  0.129805475      -1.96871650E-03  0.129820406    
   1.06250000       7.50000030E-02  0.366622508      -5.30345924E-03  0.366660863    
   1.06250000      0.125000000      0.579681873      -7.33391941E-03  0.579728246    
   1.06250000      0.175000012      0.767983198      -8.09054449E-03  0.768025815    
   1.06250000      0.224999994      0.930613875      -7.85529800E-03  0.930647016    
   1.06250000      0.275000006       1.06683016      -6.93580741E-03   1.06685269    
   1.06250000      0.324999988       1.17610800      -5.62145840E-03   1.17612147    
   1.06250000      0.375000000       1.25814652      -4.14123479E-03   1.25815332    
   1.06250000      0.425000012       1.31282520      -2.63632135E-03   1.31282783    
   1.06250000      0.475000024       1.34012628      -1.15954108E-03   1.34012675    
   1.06250000      0.524999976       1.34006512       3.01668129E-04   1.34006524    
   1.06250000      0.575000048       1.31264281       1.78520475E-03   1.31264400    
   1.06250000      0.625000000       1.25785077       3.30422912E-03   1.25785518    
   1.06250000      0.675000012       1.17571354       4.80422843E-03   1.17572331    
   1.06250000      0.725000024       1.06636143       6.14135480E-03   1.06637907    
   1.06250000      0.774999976      0.930104256       7.08543183E-03  0.930131257    
   1.06250000      0.825000048      0.767475963       7.34521355E-03  0.767511129    
   1.06250000      0.875000000      0.579233050       6.61178492E-03  0.579270780    
   1.06250000      0.925000012      0.366299629       4.61165700E-03  0.366328657    
   1.06250000      0.975000024      0.129684001       1.63234712E-03  0.129694283    
   1.06250000       1.00000000       0.00000000       0.00000000       0.00000000    
   1.18750000       0.00000000       0.00000000       0.00000000       0.00000000    
   1.18750000       2.50000004E-02  0.127821013      -2.00584577E-03  0.127836749    
   1.18750000       7.50000030E-02  0.360897541      -5.49129117E-03  0.360939324    
   1.18750000      0.125000000      0.570606887      -7.80566316E-03  0.570660233    
   1.18750000      0.175000012      0.756096661      -8.92010890E-03  0.756149292    
   1.18750000      0.224999994      0.916551471      -9.02739167E-03  0.916595936    
   1.18750000      0.275000006       1.05124784      -8.33878387E-03   1.05128086    
   1.18750000      0.324999988       1.15959573      -7.06417859E-03   1.15961730    
   1.18750000      0.375000000       1.24115896      -5.39320428E-03   1.24117064    
   1.18750000      0.425000012       1.29564738      -3.48038971E-03   1.29565203    
   1.18750000      0.475000024       1.32289410      -1.44069537E-03   1.32289481    
   1.18750000      0.524999976       1.32282543       6.38978439E-04   1.32282555    
   1.18750000      0.575000048       1.29544270       2.68313428E-03   1.29544544    
   1.18750000      0.625000000       1.24082744       4.60538687E-03   1.24083602    
   1.18750000      0.675000012       1.15915740       6.28904533E-03   1.15917444    
   1.18750000      0.725000024       1.05073059       7.57864676E-03   1.05075788    
   1.18750000      0.774999976      0.915993452       8.28339718E-03  0.916030884    
   1.18750000      0.825000048      0.755546570       8.19214806E-03  0.755590975    
   1.18750000      0.875000000      0.570124447       7.09340163E-03  0.570168555    
   1.18750000      0.925000012      0.360553026       4.80304053E-03  0.360585034    
   1.18750000      0.975000024      0.127692044       1.66983821E-03  0.127702966    
   1.18750000       1.00000000       0.00000000       0.00000000       0.00000000    
   1.31250000       0.00000000       0.00000000       0.00000000       0.00000000    
   1.31250000       2.50000004E-02  0.125959292      -2.01809523E-03  0.125975460    
   1.31250000       7.50000030E-02  0.355563849      -5.55886701E-03  0.355607301    
   1.31250000      0.125000000      0.562127590      -7.98413996E-03  0.562184274    
   1.31250000      0.175000012      0.744874299      -9.24414396E-03  0.744931638    
   1.31250000      0.224999994      0.903045952      -9.49667115E-03  0.903095901    
   1.31250000      0.275000006       1.03594446      -8.91097076E-03   1.03598273    
   1.31250000      0.324999988       1.14296627      -7.66038382E-03   1.14299190    
   1.31250000      0.375000000       1.22362661      -5.91443200E-03   1.22364092    
   1.31250000      0.425000012       1.27756751      -3.83021683E-03   1.27757323    
   1.31250000      0.475000024       1.30455756      -1.55050540E-03   1.30455852    
   1.31250000      0.524999976       1.30448389       7.93482468E-04   1.30448413    
   1.31250000      0.575000048       1.27734888       3.07592517E-03   1.27735257    
   1.31250000      0.625000000       1.22327352       5.16566541E-03   1.22328448    
   1.31250000      0.675000012       1.14250112       6.91866735E-03   1.14252210    
   1.31250000      0.725000024       1.03539801       8.17727111E-03   1.03543031    
   1.31250000      0.774999976      0.902459145       8.77233036E-03  0.902501762    
   1.31250000      0.825000048      0.744299531       8.52918159E-03  0.744348347    
   1.31250000      0.875000000      0.561626077       7.27879442E-03  0.561673224    
   1.31250000      0.925000012      0.355207324       4.87371208E-03  0.355240762    
   1.31250000      0.975000024      0.125826061       1.68300781E-03  0.125837311    
   1.31250000       1.00000000       0.00000000       0.00000000       0.00000000    
   1.43750000       0.00000000       0.00000000       0.00000000       0.00000000    
   1.43750000       2.50000004E-02  0.124135539      -2.02112668E-03  0.124151990    
   1.43750000       7.50000030E-02  0.350369453      -5.57760010E-03  0.350413829    
   1.43750000      0.125000000      0.553876162      -8.03875644E-03  0.553934455    
   1.43750000      0.175000012      0.733919501      -9.35097039E-03  0.733979046    
   1.43750000      0.224999994      0.889776409      -9.65945236E-03  0.889828801    
   1.43750000      0.275000006       1.02077079      -9.11681075E-03   1.02081144    
   1.43750000      0.324999988       1.12630391      -7.88030960E-03   1.12633145    
   1.43750000      0.375000000       1.20587826      -6.10944629E-03   1.20589375    
   1.43750000      0.425000012       1.25911474      -3.96084366E-03   1.25912094    
   1.43750000      0.475000024       1.28575873      -1.58683746E-03   1.28575969    
   1.43750000      0.524999976       1.28568232       8.61935900E-04   1.28568256    
   1.43750000      0.575000048       1.25888896       3.23662953E-03   1.25889313    
   1.43750000      0.625000000       1.20551419       5.38802054E-03   1.20552623    
   1.43750000      0.675000012       1.12582457       7.16243032E-03   1.12584734    
   1.43750000      0.725000024       1.02020979       8.40264000E-03   1.02024436    
   1.43750000      0.774999976      0.889176369       8.94955359E-03  0.889221430    
   1.43750000      0.825000048      0.733333707       8.64557177E-03  0.733384669    
   1.43750000      0.875000000      0.553367078       7.33878743E-03  0.553415775    
   1.43750000      0.925000012      0.350009054       4.89435159E-03  0.350043267    
   1.43750000      0.975000024      0.124002129       1.68629468E-03  0.124013595    
   1.43750000       1.00000000       0.00000000       0.00000000       0.00000000    
   1.56250000       0.00000000       0.00000000       0.00000000       0.00000000    
   1.56250000       2.50000004E-02  0.122318059      -2.02053180E-03  0.122334749    
   1.56250000       7.50000030E-02  0.345212966      -5.57822548E-03  0.345258027    
   1.56250000      0.125000000      0.545698047      -8.04692414E-03  0.545757353    
   1.56250000      0.175000012      0.723059893      -9.37370770E-03  0.723120630    
   1.56250000      0.224999994      0.876597285      -9.70006362E-03  0.876650929    
   1.56250000      0.275000006       1.00565195      -9.17262211E-03   1.00569379    
   1.56250000      0.324999988       1.10963607      -7.94272311E-03   1.10966456    
   1.56250000      0.375000000       1.18805444      -6.16513193E-03   1.18807042    
   1.56250000      0.425000012       1.24052382      -3.99610028E-03   1.24053025    
   1.56250000      0.475000024       1.26678503      -1.59222120E-03   1.26678598    
   1.56250000      0.524999976       1.26670861       8.89959803E-04   1.26670897    
   1.56250000      0.575000048       1.24029589       3.29397572E-03   1.24030030    
   1.56250000      0.625000000       1.18768620       5.46329934E-03   1.18769872    
   1.56250000      0.675000012       1.10915232       7.24114850E-03   1.10917592    
   1.56250000      0.725000024       1.00508726       8.47150385E-03   1.00512290    
   1.56250000      0.774999976      0.875994861       8.99976864E-03  0.876041114    
   1.56250000      0.825000048      0.722472489       8.67424533E-03  0.722524583    
   1.56250000      0.875000000      0.545188546       7.34968018E-03  0.545238078    
   1.56250000      0.925000012      0.344852805       4.89540398E-03  0.344887555    
   1.56250000      0.975000024      0.122184142       1.68540352E-03  0.122195765    
   1.56250000       1.00000000       0.00000000       0.00000000       0.00000000    
   1.68750000       0.00000000       0.00000000       0.00000000       0.00000000    
   1.68750000       2.50000004E-02  0.120495960      -2.01948825E-03  0.120512880    
   1.68750000       7.50000030E-02  0.340057999      -5.57512976E-03  0.340103686    
   1.68750000      0.125000000      0.537533760      -8.04287195E-03  0.537593961    
   1.68750000      0.175000012      0.712225080      -9.37103108E-03  0.712286711    
   1.68750000      0.224999994      0.863446474      -9.70068388E-03  0.863500953    
   1.68750000      0.275000006      0.990553975      -9.17745009E-03  0.990596473    
   1.68750000      0.324999988       1.09297156      -7.95085076E-03   1.09300053    
   1.68750000      0.375000000       1.17021072      -6.17307704E-03   1.17022705    
   1.68750000      0.425000012       1.22189295      -3.99995036E-03   1.22189951    
   1.68750000      0.475000024       1.24776006      -1.58946193E-03   1.24776101    
   1.68750000      0.524999976       1.24768400       9.00488056E-04   1.24768436    
   1.68750000      0.575000048       1.22166538       3.31096607E-03   1.22166991    
   1.68750000      0.625000000       1.16984367       5.48300566E-03   1.16985655    
   1.68750000      0.675000012       1.09248996       7.25944899E-03   1.09251404    
   1.68750000      0.725000024      0.989992499       8.48484412E-03  0.990028858    
   1.68750000      0.774999976      0.862848520       9.00622457E-03  0.862895489    
   1.68750000      0.825000048      0.711642861       8.67490470E-03  0.711695731    
   1.68750000      0.875000000      0.537029326       7.34764151E-03  0.537079632    
   1.68750000      0.925000012      0.339701414       4.89363587E-03  0.339736670    
   1.68750000      0.975000024      0.120362431       1.68489979E-03  0.120374225    
   1.68750000       1.00000000       0.00000000       0.00000000       0.00000000    
   1.81250000       0.00000000       0.00000000       0.00000000       0.00000000    
   1.81250000       2.50000004E-02  0.118668668      -2.01812363E-03  0.118685827    
   1.81250000       7.50000030E-02  0.334895760      -5.57075907E-03  0.334942073    
   1.81250000      0.125000000      0.529365182      -8.03558342E-03  0.529426157    
   1.81250000      0.175000012      0.701390862      -9.36196558E-03  0.701453328    
   1.81250000      0.224999994      0.850301147      -9.69125796E-03  0.850356400    
   1.81250000      0.275000006      0.975463510      -9.16857459E-03  0.975506604    
   1.81250000      0.324999988       1.07631230      -7.94296339E-03   1.07634163    
   1.81250000      0.375000000       1.15236723      -6.16655918E-03   1.15238369    
   1.81250000      0.425000012       1.20325756      -3.99469398E-03   1.20326424    
   1.81250000      0.475000024       1.22872806      -1.58500439E-03   1.22872913    
   1.81250000      0.524999976       1.22865248       9.03917942E-04   1.22865283    
   1.81250000      0.575000048       1.20303214       3.31288553E-03   1.20303667    
   1.81250000      0.625000000       1.15200424       5.48305083E-03   1.15201724    
   1.81250000      0.675000012       1.07583582       7.25731533E-03   1.07586026    
   1.81250000      0.725000024      0.974908710       8.48039333E-03  0.974945605    
   1.81250000      0.774999976      0.849711418       9.00007784E-03  0.849759102    