 TITLE= "TESTPLOT" 
 VARIABLES="x","y","fx","fy","magf" 
 ZONE T="1", I=          81 , J=          21
   0.00000000       0.00000000       1.00000000       0.00000000       1.00000000    
   0.00000000       2.50000004E-02   1.00000000       0.00000000       1.00000000    
   0.00000000       7.50000030E-02   1.00000000       0.00000000       1.00000000    
   0.00000000      0.125000000       1.00000000       0.00000000       1.00000000    
   0.00000000      0.175000012       1.00000000       0.00000000       1.00000000    
   0.00000000      0.224999994       1.00000000       0.00000000       1.00000000    
   0.00000000      0.275000006       1.00000000       0.00000000       1.00000000    
   0.00000000      0.324999988       1.00000000       0.00000000       1.00000000    
   0.00000000      0.375000000       1.00000000       0.00000000       1.00000000    
   0.00000000      0.425000012       1.00000000       0.00000000       1.00000000    
   0.00000000      0.475000024       1.00000000       0.00000000       1.00000000    
   0.00000000      0.524999976       1.00000000       0.00000000       1.00000000    
   0.00000000      0.575000048       1.00000000       0.00000000       1.00000000    
   0.00000000      0.625000000       1.00000000       0.00000000       1.00000000    
   0.00000000      0.675000012       1.00000000       0.00000000       1.00000000    
   0.00000000      0.725000024       1.00000000       0.00000000       1.00000000    
   0.00000000      0.774999976       1.00000000       0.00000000       1.00000000    
   0.00000000      0.825000048       1.00000000       0.00000000       1.00000000    
   0.00000000      0.875000000       1.00000000       0.00000000       1.00000000    
   0.00000000      0.925000012       1.00000000       0.00000000       1.00000000    
   0.00000000      0.975000024       1.00000000       0.00000000       1.00000000    
   0.00000000       1.00000000       1.00000000       0.00000000       1.00000000    
   6.25000000E-02   0.00000000      0.500000000       0.00000000      0.500000000    
   6.25000000E-02   2.50000004E-02  0.716391802      0.111085296      0.724953234    
   6.25000000E-02   7.50000030E-02  0.919988632      0.251639456      0.953782737    
   6.25000000E-02  0.125000000       1.01074708      0.274277866       1.04730034    
   6.25000000E-02  0.175000012       1.04561687      0.246670887       1.07431901    
   6.25000000E-02  0.224999994       1.05380440      0.201843679       1.07296062    
   6.25000000E-02  0.275000006       1.05050945      0.155060396       1.06189156    
   6.25000000E-02  0.324999988       1.04350412      0.112397313       1.04953992    
   6.25000000E-02  0.375000000       1.03657556       7.53077567E-02   1.03930748    
   6.25000000E-02  0.425000012       1.03142893       4.30482961E-02   1.03232682    
   6.25000000E-02  0.475000024       1.02874780       1.39199002E-02   1.02884197    
   6.25000000E-02  0.524999976       1.02875376      -1.41382664E-02   1.02885091    
   6.25000000E-02  0.575000048       1.03144729      -4.32760641E-02   1.03235471    
   6.25000000E-02  0.625000000       1.03660715      -7.55552724E-02   1.03935695    
   6.25000000E-02  0.675000012       1.04355013     -0.112675533       1.04961550    
   6.25000000E-02  0.725000024       1.05057156     -0.155381233       1.06200004    
   6.25000000E-02  0.774999976       1.05388296     -0.202219889       1.07310855    
   6.25000000E-02  0.825000048       1.04571056     -0.247114420       1.07451212    
   6.25000000E-02  0.875000000       1.01084948     -0.274796098       1.04753494    
   6.25000000E-02  0.925000012      0.920086503     -0.252221942      0.954030991    
   6.25000000E-02  0.975000024      0.716461122     -0.111389510      0.725068331    
   6.25000000E-02   1.00000000      0.500000000       0.00000000      0.500000000    
  0.187500000       0.00000000       0.00000000       0.00000000       0.00000000    
  0.187500000       2.50000004E-02  0.338650823       3.52745578E-02  0.340483010    
  0.187500000       7.50000030E-02  0.729815722      0.112052053      0.738367558    
  0.187500000      0.125000000      0.947927475      0.180423141      0.964945078    
  0.187500000      0.175000012       1.06126761      0.216720819       1.08316982    
  0.187500000      0.224999994       1.11304116      0.221421137       1.13485146    
  0.187500000      0.275000006       1.13068640      0.202268869       1.14863586    
  0.187500000      0.324999988       1.13132906      0.167561620       1.14367056    
  0.187500000      0.375000000       1.12534142      0.123845629       1.13213563    
  0.187500000      0.425000012       1.11873817       7.55059570E-02   1.12128329    
  0.187500000      0.475000024       1.11474943       2.51409002E-02   1.11503291    
  0.187500000      0.524999976       1.11476755      -2.57761180E-02   1.11506546    
  0.187500000      0.575000048       1.11879313      -7.61510879E-02   1.12138176    
  0.187500000      0.625000000       1.12543178     -0.124508977       1.13229811    
  0.187500000      0.675000012       1.13145387     -0.168248743       1.14389491    
  0.187500000      0.725000024       1.13084316     -0.202981427       1.14891589    
  0.187500000      0.774999976       1.11322367     -0.222155869       1.13517416    
  0.187500000      0.825000048       1.06146610     -0.217468277       1.08351409    
  0.187500000      0.875000000      0.948124886     -0.181167752      0.965278506    
  0.187500000      0.925000012      0.729986668     -0.112767369      0.738645375    
  0.187500000      0.975000024      0.338760018      -3.56205404E-02  0.340627611    
  0.187500000       1.00000000       0.00000000       0.00000000       0.00000000    
  0.312500000       0.00000000       0.00000000       0.00000000       0.00000000    
  0.312500000       2.50000004E-02  0.212903619       1.02669783E-02  0.213151023    
  0.312500000       7.50000030E-02  0.558522344       4.24247310E-02  0.560131252    
  0.312500000      0.125000000      0.813271999       8.61924738E-02  0.817826688    
  0.312500000      0.175000012      0.987333059      0.123099744      0.994977415    
  0.312500000      0.224999994       1.09799004      0.143767208       1.10736227    
  0.312500000      0.275000006       1.16294742      0.145811051       1.17205274    
  0.312500000      0.324999988       1.19749880      0.130922437       1.20463443    
  0.312500000      0.375000000       1.21360517      0.102641985       1.21793795    
  0.312500000      0.425000012       1.21983814       6.50132895E-02   1.22156942    
  0.312500000      0.475000024       1.22164941       2.19556708E-02   1.22184670    
  0.312500000      0.524999976       1.22167349      -2.28724573E-02   1.22188759    
  0.312500000      0.575000048       1.21990824      -6.59288839E-02   1.22168851    
  0.312500000      0.625000000       1.21371555     -0.103553534       1.21812510    
  0.312500000      0.675000012       1.19764209     -0.131825432       1.20487535    
  0.312500000      0.725000024       1.16311181     -0.146698356       1.17232656    
  0.312500000      0.774999976       1.09816122     -0.144629136       1.10764420    
  0.312500000      0.825000048      0.987494111     -0.123925470      0.995239735    
  0.312500000      0.875000000      0.813407540      -8.69726390E-02  0.818044066    
  0.312500000      0.925000012      0.558619738      -4.31471020E-02  0.560283542    
  0.312500000      0.975000024      0.212957352      -1.06116263E-02  0.213221580    
  0.312500000       1.00000000       0.00000000       0.00000000       0.00000000    
  0.437500000       0.00000000       0.00000000       0.00000000       0.00000000    
  0.437500000       2.50000004E-02  0.168409407       2.77333218E-03  0.168432236    
  0.437500000       7.50000030E-02  0.466808200       1.52179487E-02  0.467056185    
  0.437500000      0.125000000      0.715260088       3.70997973E-02  0.716221571    
  0.437500000      0.175000012      0.910357714       5.99560924E-02  0.912329912    
  0.437500000      0.224999994       1.05531740       7.69210756E-02   1.05811703    
  0.437500000      0.275000006       1.15734577       8.39622766E-02   1.16038740    
  0.437500000      0.324999988       1.22522497       7.97773898E-02   1.22781944    
  0.437500000      0.375000000       1.26753211       6.51732460E-02   1.26920652    
  0.437500000      0.425000012       1.29146123       4.23586778E-02   1.29215562    
  0.437500000      0.475000024       1.30211759       1.43566756E-02   1.30219674    
  0.437500000      0.524999976       1.30213451      -1.54101010E-02   1.30222571    
  0.437500000      0.575000048       1.29150844      -4.34014909E-02   1.29223752    
  0.437500000      0.625000000       1.26760173      -6.61947131E-02   1.26932895    
  0.437500000      0.675000012       1.22530651      -8.07663798E-02   1.22796547    
  0.437500000      0.725000024       1.15742612      -8.49082991E-02   1.16053641    
  0.437500000      0.774999976       1.05538416      -7.78156370E-02   1.05824900    
  0.437500000      0.825000048      0.910399675      -6.07936159E-02  0.912427187    
  0.437500000      0.875000000      0.715276301      -3.78789492E-02  0.716278553    
  0.437500000      0.925000012      0.466808081      -1.59355309E-02  0.467079997    
  0.437500000      0.975000024      0.168415844      -3.11578112E-03  0.168444663    
  0.437500000       1.00000000       0.00000000       0.00000000       0.00000000    
  0.562500000       0.00000000       0.00000000       0.00000000       0.00000000    
  0.562500000       2.50000004E-02  0.149502575       3.20538566E-05  0.149502590    
  0.562500000       7.50000030E-02  0.420545638       3.77447391E-03  0.420562565    
  0.562500000      0.125000000      0.657363534       1.33158136E-02  0.657498419    
  0.562500000      0.175000012      0.856080055       2.50980929E-02  0.856447875    
  0.562500000      0.224999994       1.01591086       3.53799351E-02   1.01652670    
  0.562500000      0.275000006       1.13887429       4.12647426E-02   1.13962162    
  0.562500000      0.324999988       1.22890651       4.11413088E-02   1.22959507    
  0.562500000      0.375000000       1.29077411       3.47523019E-02   1.29124188    
  0.562500000      0.425000012       1.32903743       2.30158716E-02   1.32923675    
  0.562500000      0.475000024       1.34721792       7.72342365E-03   1.34724009    
  0.562500000      0.524999976       1.34721899      -8.80748779E-03   1.34724784    
  0.562500000      0.575000048       1.32903683      -2.40847357E-02   1.32925510    
  0.562500000      0.625000000       1.29076588      -3.57920714E-02   1.29126203    
  0.562500000      0.675000012       1.22888184      -4.21399549E-02   1.22960413    
  0.562500000      0.725000024       1.13882601      -4.22115922E-02   1.13960803    
  0.562500000      0.774999976       1.01583552      -3.62682939E-02   1.01648271    
  0.562500000      0.825000048      0.855979323      -2.59264782E-02  0.856371880    
  0.562500000      0.875000000      0.657252431      -1.40870288E-02  0.657403409    
  0.562500000      0.925000012      0.420452833      -4.48757317E-03  0.420476764    
  0.562500000      0.975000024      0.149469852      -3.73238407E-04  0.149470314    
  0.562500000       1.00000000       0.00000000       0.00000000       0.00000000    
  0.687500000       0.00000000       0.00000000       0.00000000       0.00000000    
  0.687500000       2.50000004E-02  0.140348494      -1.12824177E-03  0.140353024    
  0.687500000       7.50000030E-02  0.396282911      -1.38561544E-03  0.396285355    
  0.687500000      0.125000000      0.624118328       1.83516473E-03  0.624121010    
  0.687500000      0.175000012      0.821186781       7.07678823E-03  0.821217299    
  0.687500000      0.224999994      0.986080945       1.24568492E-02  0.986159623    
  0.687500000      0.275000006       1.11886859       1.62805580E-02   1.11898696    
  0.687500000      0.324999988       1.22090983       1.73800290E-02   1.22103357    
  0.687500000      0.375000000       1.29438293       1.52998567E-02   1.29447341    
  0.687500000      0.425000012       1.34166574       1.03173405E-02   1.34170544    
  0.687500000      0.475000024       1.36473978       3.32561019E-03   1.36474383    
  0.687500000      0.524999976       1.36472237      -4.37760353E-03   1.36472940    
  0.687500000      0.575000048       1.34160948      -1.13544893E-02   1.34165752    
  0.687500000      0.625000000       1.29428649      -1.63081884E-02   1.29438925    
  0.687500000      0.675000012       1.22077000      -1.83476545E-02   1.22090793    
  0.687500000      0.725000024       1.11868620      -1.71990488E-02   1.11881840    
  0.687500000      0.774999976      0.985863805      -1.33214528E-02  0.985953808    
  0.687500000      0.825000048      0.820950508      -7.88700301E-03  0.820988417    
  0.687500000      0.875000000      0.623892188      -2.59491173E-03  0.623897552    
  0.687500000      0.925000012      0.396110058       6.77712844E-04  0.396110654    
  0.687500000      0.975000024      0.140283972       7.88320845E-04  0.140286192    
  0.687500000       1.00000000       0.00000000       0.00000000       0.00000000    
  0.812500000       0.00000000       0.00000000       0.00000000       0.00000000    
  0.812500000       2.50000004E-02  0.135385066      -1.64438377E-03  0.135395050    
  0.812500000       7.50000030E-02  0.382475376      -3.76076158E-03  0.382493854    
  0.812500000      0.125000000      0.603993177      -3.65023641E-03  0.604004204    
  0.812500000      0.175000012      0.798190653      -1.87578297E-03  0.798192859    
  0.812500000      0.224999994      0.963805437       6.24580076E-04  0.963805676    
  0.812500000      0.275000006       1.10027814       2.92111654E-03   1.10028207    
  0.812500000      0.324999988       1.20778227       4.28386731E-03   1.20778990    
  0.812500000      0.375000000       1.28705525       4.32182010E-03   1.28706253    
  0.812500000      0.425000012       1.33909822       3.03842244E-03   1.33910167    
  0.812500000      0.475000024       1.36483002       7.97209097E-04   1.36483026    
  0.812500000      0.524999976       1.36479449      -1.78823411E-03   1.36479568    
  0.812500000      0.575000048       1.33898997      -4.01604921E-03   1.33899593    
  0.812500000      0.625000000       1.28687668      -5.27450675E-03   1.28688753    
  0.812500000      0.675000012       1.20753741      -5.20213414E-03   1.20754862    
  0.812500000      0.725000024       1.09997737      -3.79824382E-03   1.09998393    
  0.812500000      0.774999976      0.963466167      -1.45721203E-03  0.963467300    
  0.812500000      0.825000048      0.797839999       1.08747452E-03  0.797840714    
  0.812500000      0.875000000      0.603671908       2.90337484E-03  0.603678882    
  0.812500000      0.925000012      0.382237703       3.05866078E-03  0.382249951    
  0.812500000      0.975000024      0.135295779       1.30581937E-03  0.135302082    
  0.812500000       1.00000000       0.00000000       0.00000000       0.00000000    
  0.937500000       0.00000000       0.00000000       0.00000000       0.00000000    
  0.937500000       2.50000004E-02  0.132281482      -1.87192007E-03  0.132294729    
  0.937500000       7.50000030E-02  0.373576522      -4.83625708E-03  0.373607844    
  0.937500000      0.125000000      0.590423465      -6.20094361E-03  0.590456009    
  0.937500000      0.175000012      0.781615019      -6.14977255E-03  0.781639218    
  0.937500000      0.224999994      0.946108937      -5.16972318E-03  0.946123064    
  0.937500000      0.275000006       1.08318210      -3.77531582E-03   1.08318865    
  0.937500000      0.324999988       1.19250298      -2.41255155E-03   1.19250548    
  0.937500000      0.375000000       1.27409410      -1.37838593E-03   1.27409482    
  0.937500000      0.425000012       1.32820415      -7.76542816E-04   1.32820439    
  0.937500000      0.475000024       1.35513449      -5.22775517E-04   1.35513461    
  0.937500000      0.524999976       1.35508358      -3.97986412E-04   1.35508358    
  0.937500000      0.575000048       1.32805300      -1.34249072E-04   1.32805300    
  0.937500000      0.625000000       1.27384877       4.86717210E-04   1.27384889    
  0.937500000      0.675000012       1.19217360       1.54713588E-03   1.19217455    
  0.937500000      0.725000024       1.08278573       2.94123380E-03   1.08278978    
  0.937500000      0.774999976      0.945672750       4.37007472E-03  0.945682824    
  0.937500000      0.825000048      0.781175137       5.38457185E-03  0.781193674    
  0.937500000      0.875000000      0.590028763       5.46783861E-03  0.590054095    
  0.937500000      0.925000012      0.373289168       4.14012186E-03  0.373312116    
  0.937500000      0.975000024      0.132173240       1.53468398E-03  0.132182151    
  0.937500000       1.00000000       0.00000000       0.00000000       0.00000000    
   1.06250000       0.00000000       0.00000000       0.00000000       0.00000000    
   1.06250000       2.50000004E-02  0.129985794      -1.96763268E-03  0.130000696    
   1.06250000       7.50000030E-02  0.366914719      -5.30238030E-03  0.366953045    
   1.06250000      0.125000000      0.579973936      -7.33528566E-03  0.580020308    
   1.06250000      0.175000012      0.768250942      -8.09383392E-03  0.768293560    
   1.06250000      0.224999994      0.930864811      -7.85916019E-03  0.930898011    
   1.06250000      0.275000006       1.06707478      -6.93924958E-03   1.06709743    
   1.06250000      0.324999988       1.17635286      -5.62392455E-03   1.17636621    
   1.06250000      0.375000000       1.25839376      -4.14235517E-03   1.25840056    
   1.06250000      0.425000012       1.31307423      -2.63636233E-03   1.31307685    
   1.06250000      0.475000024       1.34037638      -1.15886307E-03   1.34037685    
   1.06250000      0.524999976       1.34031439       3.03330715E-04   1.34031439    
   1.06250000      0.575000048       1.31289148       1.78790861E-03   1.31289268    
   1.06250000      0.625000000       1.25809860       3.30759096E-03   1.25810289    
   1.06250000      0.675000012       1.17596030       4.80832160E-03   1.17597008    
   1.06250000      0.725000024       1.06660807       6.14632946E-03   1.06662583    
   1.06250000      0.774999976      0.930357397       7.09043350E-03  0.930384398    
   1.06250000      0.825000048      0.767746449       7.34926388E-03  0.767781615    
   1.06250000      0.875000000      0.579527259       6.61386456E-03  0.579564989    
   1.06250000      0.925000012      0.366592765       4.61124256E-03  0.366621763    
   1.06250000      0.975000024      0.129864484       1.63154467E-03  0.129874736    
   1.06250000       1.00000000       0.00000000       0.00000000       0.00000000    
   1.18750000       0.00000000       0.00000000       0.00000000       0.00000000    
   1.18750000       2.50000004E-02  0.128021210      -2.00488721E-03  0.128036901    
   1.18750000       7.50000030E-02  0.361223102      -5.49052283E-03  0.361264825    
   1.18750000      0.125000000      0.570932627      -7.80717004E-03  0.570985973    
   1.18750000      0.175000012      0.756394863      -8.92306585E-03  0.756447494    
   1.18750000      0.224999994      0.916830480      -9.03045200E-03  0.916874945    
   1.18750000      0.275000006       1.05151963      -8.34104698E-03   1.05155277    
   1.18750000      0.324999988       1.15986764      -7.06569292E-03   1.15988922    
   1.18750000      0.375000000       1.24143267      -5.39397262E-03   1.24144435    
   1.18750000      0.425000012       1.29592299      -3.48022673E-03   1.29592764    
   1.18750000      0.475000024       1.32317030      -1.44012598E-03   1.32317102    
   1.18750000      0.524999976       1.32310140       6.40149403E-04   1.32310152    
   1.18750000      0.575000048       1.29571867       2.68494640E-03   1.29572141    
   1.18750000      0.625000000       1.24110270       4.60780179E-03   1.24111128    
   1.18750000      0.675000012       1.15943122       6.29229844E-03   1.15944827    
   1.18750000      0.725000024       1.05100489       7.58252945E-03   1.05103219    
   1.18750000      0.774999976      0.916275442       8.28764401E-03  0.916312933    
   1.18750000      0.825000048      0.755847931       8.19595158E-03  0.755892396    
   1.18750000      0.875000000      0.570452392       7.09554646E-03  0.570496500    
   1.18750000      0.925000012      0.360879421       4.80318163E-03  0.360911369    
   1.18750000      0.975000024      0.127892241       1.66948489E-03  0.127903134    
   1.18750000       1.00000000       0.00000000       0.00000000       0.00000000    
   1.31250000       0.00000000       0.00000000       0.00000000       0.00000000    
   1.31250000       2.50000004E-02  0.126179338      -2.01710360E-03  0.126195461    
   1.31250000       7.50000030E-02  0.355921626      -5.55762462E-03  0.355965018    
   1.31250000      0.125000000      0.562485576      -7.98456743E-03  0.562542260    
   1.31250000      0.175000012      0.745201588      -9.24602244E-03  0.745258927    
   1.31250000      0.224999994      0.903352022      -9.49893519E-03  0.903401971    
   1.31250000      0.275000006       1.03624296      -8.91301408E-03   1.03628123    
   1.31250000      0.324999988       1.14326465      -7.66225718E-03   1.14329028    
   1.31250000      0.375000000       1.22392702      -5.91595331E-03   1.22394133    
   1.31250000      0.425000012       1.27786875      -3.83125641E-03   1.27787447    
   1.31250000      0.475000024       1.30485868      -1.55077805E-03   1.30485964    
   1.31250000      0.524999976       1.30478549       7.94340507E-04   1.30478573    
   1.31250000      0.575000048       1.27765095       3.07768071E-03   1.27765465    
   1.31250000      0.625000000       1.22357464       5.16807195E-03   1.22358561    
   1.31250000      0.675000012       1.14280093       6.92198798E-03   1.14282191    
   1.31250000      0.725000024       1.03569865       8.18117242E-03   1.03573096    
   1.31250000      0.774999976      0.902768373       8.77599977E-03  0.902811050    
   1.31250000      0.825000048      0.744629979       8.53219721E-03  0.744678855    
   1.31250000      0.875000000      0.561986446       7.28031155E-03  0.562033594    
   1.31250000      0.925000012      0.355566233       4.87330090E-03  0.355599642    
   1.31250000      0.975000024      0.126046434       1.68237463E-03  0.126057670    
   1.31250000       1.00000000       0.00000000       0.00000000       0.00000000    
   1.43750000       0.00000000       0.00000000       0.00000000       0.00000000    
   1.43750000       2.50000004E-02  0.124374777      -2.01973878E-03  0.124391176    
   1.43750000       7.50000030E-02  0.350758553      -5.57576260E-03  0.350802869    
   1.43750000      0.125000000      0.554265499      -8.03891942E-03  0.554323792    
   1.43750000      0.175000012      0.734275699      -9.35280789E-03  0.734335244    
   1.43750000      0.224999994      0.890109181      -9.66176763E-03  0.890161633    
   1.43750000      0.275000006       1.02109480      -9.11861006E-03   1.02113557    
   1.43750000      0.324999988       1.12662745      -7.88134336E-03   1.12665498    
   1.43750000      0.375000000       1.20620418      -6.10949751E-03   1.20621967    
   1.43750000      0.425000012       1.25944185      -3.96014703E-03   1.25944805    
   1.43750000      0.475000024       1.28608584      -1.58634630E-03   1.28608680    
   1.43750000      0.524999976       1.28600967       8.62287241E-04   1.28600991    
   1.43750000      0.575000048       1.25921607       3.23755946E-03   1.25922024    
   1.43750000      0.625000000       1.20584011       5.38966898E-03   1.20585215    
   1.43750000      0.675000012       1.12614942       7.16492347E-03   1.12617230    
   1.43750000      0.725000024       1.02053571       8.40584747E-03   1.02057040    
   1.43750000      0.774999976      0.889512062       8.95292498E-03  0.889557123    
   1.43750000      0.825000048      0.733692884       8.64833407E-03  0.733743846    
   1.43750000      0.875000000      0.553758860       7.34012481E-03  0.553807497    
   1.43750000      0.925000012      0.350399137       4.89387196E-03  0.350433320    
   1.43750000      0.975000024      0.124240711       1.68558361E-03  0.124252148    
   1.43750000       1.00000000       0.00000000       0.00000000       0.00000000    
   1.56250000       0.00000000       0.00000000       0.00000000       0.00000000    
   1.56250000       2.50000004E-02  0.122575447      -2.01937347E-03  0.122592084    
   1.56250000       7.50000030E-02  0.345632166      -5.57704363E-03  0.345677167    
   1.56250000      0.125000000      0.546117604      -8.04790109E-03  0.546176910    
   1.56250000      0.175000012      0.723443627      -9.37635265E-03  0.723504364    
   1.56250000      0.224999994      0.876955986      -9.70321428E-03  0.877009690    
   1.56250000      0.275000006       1.00600123      -9.17537324E-03   1.00604308    
   1.56250000      0.324999988       1.10998464      -7.94482045E-03   1.11001301    
   1.56250000      0.375000000       1.18840551      -6.16651215E-03   1.18842149    
   1.56250000      0.425000012       1.24087715      -3.99675965E-03   1.24088359    
   1.56250000      0.475000024       1.26713932      -1.59205252E-03   1.26714027    
   1.56250000      0.524999976       1.26706195       8.90934898E-04   1.26706231    
   1.56250000      0.575000048       1.24064827       3.29575664E-03   1.24065268    
   1.56250000      0.625000000       1.18803728       5.46598993E-03   1.18804991    
   1.56250000      0.675000012       1.10950196       7.24478159E-03   1.10952556    
   1.56250000      0.725000024       1.00543809       8.47560354E-03   1.00547385    
   1.56250000      0.774999976      0.876355946       9.00391117E-03  0.876402199    
   1.56250000      0.825000048      0.722859681       8.67826492E-03  0.722911835    
   1.56250000      0.875000000      0.545611501       7.35256914E-03  0.545661032    
   1.56250000      0.925000012      0.345274210       4.89638792E-03  0.345308930    
   1.56250000      0.975000024      0.122442365       1.68542855E-03  0.122453965    
   1.56250000       1.00000000       0.00000000       0.00000000       0.00000000    
   1.68750000       0.00000000       0.00000000       0.00000000       0.00000000    
   1.68750000       2.50000004E-02  0.120771900      -2.01816810E-03  0.120788760    
   1.68750000       7.50000030E-02  0.340507090      -5.57352602E-03  0.340552688    
   1.68750000      0.125000000      0.537983418      -8.04327987E-03  0.538043559    
   1.68750000      0.175000012      0.712636232      -9.37282294E-03  0.712697864    
   1.68750000      0.224999994      0.863830745      -9.70294885E-03  0.863885224    
   1.68750000      0.275000006      0.990928113      -9.17945709E-03  0.990970671    
   1.68750000      0.324999988       1.09334445      -7.95205031E-03   1.09337342    
   1.68750000      0.375000000       1.17058635      -6.17352128E-03   1.17060268    
   1.68750000      0.425000012       1.22227120      -3.99985025E-03   1.22227776    
   1.68750000      0.475000024       1.24813938      -1.58874993E-03   1.24814034    
   1.68750000      0.524999976       1.24806213       9.01704945E-04   1.24806249    
   1.68750000      0.575000048       1.22204256       3.31260357E-03   1.22204709    
   1.68750000      0.625000000       1.17021918       5.48525248E-03   1.17023206    
   1.68750000      0.675000012       1.09286344       7.26238731E-03   1.09288752    
   1.68750000      0.725000024      0.990367651       8.48819967E-03  0.990404069    
   1.68750000      0.774999976      0.863234520       9.00986604E-03  0.863281548    
   1.68750000      0.825000048      0.712057114       8.67843814E-03  0.712110043    
   1.68750000      0.875000000      0.537482321       7.34993443E-03  0.537532568    
   1.68750000      0.925000012      0.340153456       4.89397068E-03  0.340188652    
   1.68750000      0.975000024      0.120640546       1.68455427E-03  0.120652303    
   1.68750000       1.00000000       0.00000000       0.00000000       0.00000000    
   1.81250000       0.00000000       0.00000000       0.00000000       0.00000000    
   1.81250000       2.50000004E-02  0.118963182      -2.01731920E-03  0.118980289    
   1.81250000       7.50000030E-02  0.335374385      -5.56993298E-03  0.335420638    
   1.81250000      0.125000000      0.529844284      -8.03614035E-03  0.529905200    
   1.81250000      0.175000012      0.701829076      -9.36316699E-03  0.701891541    
   1.81250000      0.224999994      0.850710034      -9.69239045E-03  0.850765228    
   1.81250000      0.275000006      0.975860596      -9.16938856E-03  0.975903690    
   1.81250000      0.324999988       1.07670760      -7.94336759E-03   1.07673693    
   1.81250000      0.375000000       1.15276599      -6.16655592E-03   1.15278244    
   1.81250000      0.425000012       1.20365882      -3.99432331E-03   1.20366549    
   1.81250000      0.475000024       1.22913039      -1.58433430E-03   1.22913146    
   1.81250000      0.524999976       1.22905397       9.04930988E-04   1.22905433    
   1.81250000      0.575000048       1.20343280       3.31417890E-03   1.20343733    
   1.81250000      0.625000000       1.15240312       5.48468111E-03   1.15241611    
   1.81250000      0.675000012       1.07623267       7.25920452E-03   1.07625711    
   1.81250000      0.725000024      0.975307584       8.48250091E-03  0.975344479    
   1.81250000      0.774999976      0.850122094       9.00250301E-03  0.850169778    