 TITLE= "TESTPLOT" 
 VARIABLES="x","y","fx","fy","magf" 
 ZONE T="1", I=          81 , J=          21
   0.00000000       0.00000000       1.00000000       0.00000000       1.00000000    
   0.00000000       2.50000004E-02   1.00000000       0.00000000       1.00000000    
   0.00000000       7.50000030E-02   1.00000000       0.00000000       1.00000000    
   0.00000000      0.125000000       1.00000000       0.00000000       1.00000000    
   0.00000000      0.175000012       1.00000000       0.00000000       1.00000000    
   0.00000000      0.224999994       1.00000000       0.00000000       1.00000000    
   0.00000000      0.275000006       1.00000000       0.00000000       1.00000000    
   0.00000000      0.324999988       1.00000000       0.00000000       1.00000000    
   0.00000000      0.375000000       1.00000000       0.00000000       1.00000000    
   0.00000000      0.425000012       1.00000000       0.00000000       1.00000000    
   0.00000000      0.475000024       1.00000000       0.00000000       1.00000000    
   0.00000000      0.524999976       1.00000000       0.00000000       1.00000000    
   0.00000000      0.575000048       1.00000000       0.00000000       1.00000000    
   0.00000000      0.625000000       1.00000000       0.00000000       1.00000000    
   0.00000000      0.675000012       1.00000000       0.00000000       1.00000000    
   0.00000000      0.725000024       1.00000000       0.00000000       1.00000000    
   0.00000000      0.774999976       1.00000000       0.00000000       1.00000000    
   0.00000000      0.825000048       1.00000000       0.00000000       1.00000000    
   0.00000000      0.875000000       1.00000000       0.00000000       1.00000000    
   0.00000000      0.925000012       1.00000000       0.00000000       1.00000000    
   0.00000000      0.975000024       1.00000000       0.00000000       1.00000000    
   0.00000000       1.00000000       1.00000000       0.00000000       1.00000000    
   6.25000000E-02   0.00000000      0.500000000       0.00000000      0.500000000    
   6.25000000E-02   2.50000004E-02  0.753739119       9.71428007E-02  0.759973288    
   6.25000000E-02   7.50000030E-02  0.976150930      0.202361062      0.996905565    
   6.25000000E-02  0.125000000       1.04297113      0.191785753       1.06045771    
   6.25000000E-02  0.175000012       1.04867911      0.152201563       1.05966651    
   6.25000000E-02  0.224999994       1.03929257      0.114089429       1.04553592    
   6.25000000E-02  0.275000006       1.02979767       8.35296810E-02   1.03317976    
   6.25000000E-02  0.324999988       1.02304602       5.94681948E-02   1.02477288    
   6.25000000E-02  0.375000000       1.01874828       3.98263857E-02   1.01952648    
   6.25000000E-02  0.425000012       1.01625204       2.29021832E-02   1.01651013    
   6.25000000E-02  0.475000024       1.01510870       7.43375858E-03   1.01513600    
   6.25000000E-02  0.524999976       1.01511025      -7.57811079E-03   1.01513851    
   6.25000000E-02  0.575000048       1.01625705      -2.30495930E-02   1.01651847    
   6.25000000E-02  0.625000000       1.01875830      -3.99800986E-02   1.01954246    
   6.25000000E-02  0.675000012       1.02306175      -5.96320033E-02   1.02479815    
   6.25000000E-02  0.725000024       1.02982187      -8.37091580E-02   1.03321838    
   6.25000000E-02  0.774999976       1.03932810     -0.114292569       1.04559350    
   6.25000000E-02  0.825000048       1.04872966     -0.152438581       1.05975056    
   6.25000000E-02  0.875000000       1.04303551     -0.192066789       1.06057191    
   6.25000000E-02  0.925000012      0.976218164     -0.202685416      0.997037232    
   6.25000000E-02  0.975000024      0.753789961      -9.73145217E-02  0.760045648    
   6.25000000E-02   1.00000000      0.500000000       0.00000000      0.500000000    
  0.187500000       0.00000000       0.00000000       0.00000000       0.00000000    
  0.187500000       2.50000004E-02  0.448897600       2.20495313E-02  0.449438810    
  0.187500000       7.50000030E-02  0.907835841       6.03967682E-02  0.909842670    
  0.187500000      0.125000000       1.06978846       8.16694200E-02   1.07290125    
  0.187500000      0.175000012       1.09896529       8.45159665E-02   1.10221028    
  0.187500000      0.224999994       1.08865499       7.68744051E-02   1.09136581    
  0.187500000      0.275000006       1.07303619       6.44997433E-02   1.07497299    
  0.187500000      0.324999988       1.06054974       5.03700897E-02   1.06174517    
  0.187500000      0.375000000       1.05202579       3.58051248E-02   1.05263484    
  0.187500000      0.425000012       1.04683566       2.12904606E-02   1.04705215    
  0.187500000      0.475000024       1.04439139       6.91784406E-03   1.04441428    
  0.187500000      0.524999976       1.04439545      -7.39206187E-03   1.04442155    
  0.187500000      0.575000048       1.04684854      -2.17660759E-02   1.04707479    
  0.187500000      0.625000000       1.05204940      -3.62831652E-02   1.05267489    
  0.187500000      0.675000012       1.06058550      -5.08514084E-02   1.06180382    
  0.187500000      0.725000024       1.07308912      -6.49848282E-02   1.07505500    
  0.187500000      0.774999976       1.08872843      -7.73622394E-02   1.09147358    
  0.187500000      0.825000048       1.09906137      -8.50025117E-02   1.10234356    
  0.187500000      0.875000000       1.06989789      -8.21454525E-02   1.07304668    
  0.187500000      0.925000012      0.907930970      -6.08423874E-02  0.909967303    
  0.187500000      0.975000024      0.448956162      -2.22613178E-02  0.449507713    
  0.187500000       1.00000000       0.00000000       0.00000000       0.00000000    
  0.312500000       0.00000000       0.00000000       0.00000000       0.00000000    
  0.312500000       2.50000004E-02  0.377917200       3.56389838E-03  0.377934009    
  0.312500000       7.50000030E-02  0.843602240       1.35323554E-02  0.843710780    
  0.312500000      0.125000000       1.03798032       2.46989168E-02   1.03827417    
  0.312500000      0.175000012       1.09165871       3.15279812E-02   1.09211385    
  0.312500000      0.224999994       1.09560096       3.33469510E-02   1.09610832    
  0.312500000      0.275000006       1.08747697       3.12015787E-02   1.08792448    
  0.312500000      0.324999988       1.07869685       2.63312794E-02   1.07901812    
  0.312500000      0.375000000       1.07189345       1.97258182E-02   1.07207489    
  0.312500000      0.425000012       1.06743371       1.20900208E-02   1.06750214    
  0.312500000      0.475000024       1.06524611       3.91758280E-03   1.06525338    
  0.312500000      0.524999976       1.06525075      -4.42069769E-03   1.06525993    
  0.312500000      0.575000048       1.06744838      -1.25930924E-02   1.06752264    
  0.312500000      0.625000000       1.07191873      -2.02279054E-02   1.07210958    
  0.312500000      0.675000012       1.07873344      -2.68310979E-02   1.07906711    
  0.312500000      0.725000024       1.08752751      -3.16972546E-02   1.08798933    
  0.312500000      0.774999976       1.09566545      -3.38354334E-02   1.09618783    
  0.312500000      0.825000048       1.09173250      -3.20048891E-02   1.09220159    
  0.312500000      0.875000000       1.03804529      -2.51581669E-02   1.03835011    
  0.312500000      0.925000012      0.843628287      -1.39628379E-02  0.843743801    
  0.312500000      0.975000024      0.377909839      -3.77004570E-03  0.377928644    
  0.312500000       1.00000000       0.00000000       0.00000000       0.00000000    
  0.437500000       0.00000000       0.00000000       0.00000000       0.00000000    
  0.437500000       2.50000004E-02  0.362568676      -2.32133025E-04  0.362568766    
  0.437500000       7.50000030E-02  0.815124452       1.50032900E-03  0.815125823    
  0.437500000      0.125000000       1.01276088       5.77424886E-03   1.01277733    
  0.437500000      0.175000012       1.07491410       9.70119145E-03   1.07495785    
  0.437500000      0.224999994       1.08705640       1.19732674E-02   1.08712232    
  0.437500000      0.275000006       1.08529234       1.23882573E-02   1.08536303    
  0.437500000      0.324999988       1.08098996       1.11945160E-02   1.08104789    
  0.437500000      0.375000000       1.07713020       8.76804534E-03   1.07716584    
  0.437500000      0.425000012       1.07442844       5.49158547E-03   1.07444251    
  0.437500000      0.475000024       1.07305825       1.72202615E-03   1.07305968    
  0.437500000      0.524999976       1.07306170      -2.20830343E-03   1.07306397    
  0.437500000      0.575000048       1.07443976      -5.97668253E-03   1.07445645    
  0.437500000      0.625000000       1.07714915      -9.25073307E-03   1.07718885    
  0.437500000      0.675000012       1.08101690      -1.16736013E-02   1.08107996    
  0.437500000      0.725000024       1.08532774      -1.28621869E-02   1.08540392    
  0.437500000      0.774999976       1.08709812      -1.24396421E-02   1.08716929    
  0.437500000      0.825000048       1.07495594      -1.01572201E-02   1.07500386    
  0.437500000      0.875000000       1.01278412      -6.21695118E-03   1.01280320    
  0.437500000      0.925000012      0.815103531      -1.92221452E-03  0.815105796    
  0.437500000      0.975000024      0.362526476       2.78545158E-05  0.362526476    
  0.437500000       1.00000000       0.00000000       0.00000000       0.00000000    
  0.562500000       0.00000000       0.00000000       0.00000000       0.00000000    
  0.562500000       2.50000004E-02  0.359079719      -1.21416559E-03  0.359081775    
  0.562500000       7.50000030E-02  0.801649332      -2.06166273E-03  0.801651955    
  0.562500000      0.125000000      0.996821821      -6.81757519E-04  0.996822059    
  0.562500000      0.175000012       1.06088924       1.27409794E-03   1.06089008    
  0.562500000      0.224999994       1.07630980       2.81311944E-03   1.07631338    
  0.562500000      0.275000006       1.07778382       3.60590895E-03   1.07778990    
  0.562500000      0.324999988       1.07617640       3.63619812E-03   1.07618260    
  0.562500000      0.375000000       1.07433081       3.01664416E-03   1.07433510    
  0.562500000      0.425000012       1.07295108       1.91315054E-03   1.07295275    
  0.562500000      0.475000024       1.07223225       5.13574923E-04   1.07223237    
  0.562500000      0.524999976       1.07223427      -9.85220307E-04   1.07223475    
  0.562500000      0.575000048       1.07295787      -2.38375948E-03   1.07296050    
  0.562500000      0.625000000       1.07434201      -3.48505238E-03   1.07434773    
  0.562500000      0.675000012       1.07619214      -4.10106033E-03   1.07620001    
  0.562500000      0.725000024       1.07780361      -4.06602630E-03   1.07781136    
  0.562500000      0.774999976       1.07633150      -3.26713477E-03   1.07633650    
  0.562500000      0.825000048       1.06090665      -1.72052649E-03   1.06090808    
  0.562500000      0.875000000      0.996817470       2.44313560E-04  0.996817529    
  0.562500000      0.925000012      0.801600814       1.63971155E-03  0.801602483    
  0.562500000      0.975000024      0.359017640       1.00850884E-03  0.359019071    
  0.562500000       1.00000000       0.00000000       0.00000000       0.00000000    
  0.687500000       0.00000000       0.00000000       0.00000000       0.00000000    
  0.687500000       2.50000004E-02  0.358749896      -1.53596560E-03  0.358753175    
  0.687500000       7.50000030E-02  0.793563843      -3.30662262E-03  0.793570697    
  0.687500000      0.125000000      0.985430241      -3.09444033E-03  0.985435069    
  0.687500000      0.175000012       1.04937530      -2.07786867E-03   1.04937732    
  0.687500000      0.224999994       1.06592321      -1.04107033E-03   1.06592369    
  0.687500000      0.275000006       1.06881595      -2.73118581E-04   1.06881595    
  0.687500000      0.324999988       1.06853223       1.62265555E-04   1.06853223    
  0.687500000      0.375000000       1.06775558       2.91901524E-04   1.06775570    
  0.687500000      0.425000012       1.06711614       1.82924079E-04   1.06711614    
  0.687500000      0.475000024       1.06677389      -7.63850403E-05   1.06677389    
  0.687500000      0.524999976       1.06677485      -3.86846834E-04   1.06677496    
  0.687500000      0.575000048       1.06711936      -6.45706488E-04   1.06711960    
  0.687500000      0.625000000       1.06776047      -7.53290718E-04   1.06776071    
  0.687500000      0.675000012       1.06853890      -6.21056184E-04   1.06853902    
  0.687500000      0.725000024       1.06882358      -1.81981944E-04   1.06882358    
  0.687500000      0.774999976       1.06593013       5.90340176E-04   1.06593025    
  0.687500000      0.825000048       1.04937577       1.63246645E-03   1.04937696    
  0.687500000      0.875000000      0.985407889       2.65576201E-03  0.985411465    
  0.687500000      0.925000012      0.793498039       2.88117118E-03  0.793503284    
  0.687500000      0.975000024      0.358674318       1.32798555E-03  0.358676761    
  0.687500000       1.00000000       0.00000000       0.00000000       0.00000000    
  0.812500000       0.00000000       0.00000000       0.00000000       0.00000000    
  0.812500000       2.50000004E-02  0.359390855      -1.64922827E-03  0.359394640    
  0.812500000       7.50000030E-02  0.787452340      -3.77183594E-03  0.787461400    
  0.812500000      0.125000000      0.975932837      -4.04029386E-03  0.975941181    
  0.812500000      0.175000012       1.03910673      -3.44132120E-03   1.03911245    
  0.812500000      0.224999994       1.05593300      -2.65955832E-03   1.05593634    
  0.812500000      0.275000006       1.05940390      -1.94819726E-03   1.05940568    
  0.812500000      0.324999988       1.05971920      -1.37350650E-03   1.05972016    
  0.812500000      0.375000000       1.05945182      -9.34918644E-04   1.05945218    
  0.812500000      0.425000012       1.05917692      -6.06079353E-04   1.05917704    
  0.812500000      0.475000024       1.05902326      -3.47771158E-04   1.05902338    
  0.812500000      0.524999976       1.05902314      -1.13619717E-04   1.05902314    
  0.812500000      0.575000048       1.05917692       1.45130733E-04   1.05917692    
  0.812500000      0.625000000       1.05945158       4.74965665E-04   1.05945170    
  0.812500000      0.675000012       1.05971885       9.15491255E-04   1.05971920    
  0.812500000      0.725000024       1.05940259       1.49293081E-03   1.05940366    
  0.812500000      0.774999976       1.05592966       2.20724521E-03   1.05593204    
  0.812500000      0.825000048       1.03909564       2.99269636E-03   1.03909993    
  0.812500000      0.875000000      0.975898921       3.59674427E-03  0.975905538    
  0.812500000      0.925000012      0.787375450       3.33998585E-03  0.787382543    
  0.812500000      0.975000024      0.359306037       1.43772562E-03  0.359308928    
  0.812500000       1.00000000       0.00000000       0.00000000       0.00000000    
  0.937500000       0.00000000       0.00000000       0.00000000       0.00000000    
  0.937500000       2.50000004E-02  0.360265434      -1.68237591E-03  0.360269368    
  0.937500000       7.50000030E-02  0.782035947      -3.93435173E-03  0.782045841    
  0.937500000      0.125000000      0.967159629      -4.40343190E-03  0.967169642    
  0.937500000      0.175000012       1.02933645      -3.98921501E-03   1.02934408    
  0.937500000      0.224999994       1.04610157      -3.32895201E-03   1.04610693    
  0.937500000      0.275000006       1.04978466      -2.65567424E-03   1.04978800    
  0.937500000      0.324999988       1.05035901      -2.03263247E-03   1.05036104    
  0.937500000      0.375000000       1.05032182      -1.46800326E-03   1.05032277    
  0.937500000      0.425000012       1.05021524      -9.52269009E-04   1.05021572    
  0.937500000      0.475000024       1.05014968      -4.68369690E-04   1.05014980    
  0.937500000      0.524999976       1.05014873       4.65808989E-06   1.05014873    
  0.937500000      0.575000048       1.05021262       4.89068450E-04   1.05021274    
  0.937500000      0.625000000       1.05031788       1.00580021E-03   1.05031836    
  0.937500000      0.675000012       1.05035305       1.57188089E-03   1.05035424    
  0.937500000      0.725000024       1.04977655       2.19665887E-03   1.04977882    
  0.937500000      0.774999976       1.04609084       2.87190033E-03   1.04609478    
  0.937500000      0.825000048       1.02931702       3.53488419E-03   1.02932310    
  0.937500000      0.875000000      0.967117548       3.95299448E-03  0.967125595    
  0.937500000      0.925000012      0.781951964       3.49486177E-03  0.781959772    
  0.937500000      0.975000024      0.360174358       1.46697205E-03  0.360177338    
  0.937500000       1.00000000       0.00000000       0.00000000       0.00000000    
   1.06250000       0.00000000       0.00000000       0.00000000       0.00000000    
   1.06250000       2.50000004E-02  0.361076474      -1.68179988E-03  0.361080408    
   1.06250000       7.50000030E-02  0.776795149      -3.97014199E-03  0.776805282    
   1.06250000      0.125000000      0.958604932      -4.52217832E-03  0.958615601    
   1.06250000      0.175000012       1.01970315      -4.19146754E-03   1.01971173    
   1.06250000      0.224999994       1.03626871      -3.59029183E-03   1.03627491    
   1.06250000      0.275000006       1.04000556      -2.94101704E-03   1.04000974    
   1.06250000      0.324999988       1.04068685      -2.30422057E-03   1.04068947    
   1.06250000      0.375000000       1.04075074      -1.69117609E-03   1.04075205    
   1.06250000      0.425000012       1.04071927      -1.09913340E-03   1.04071987    
   1.06250000      0.475000024       1.04069352      -5.21056354E-04   1.04069364    
   1.06250000      0.524999976       1.04069209       5.21497204E-05   1.04069209    
   1.06250000      0.575000048       1.04071522       6.30460214E-04   1.04071534    
   1.06250000      0.625000000       1.04074430       1.22306892E-03   1.04074502    
   1.06250000      0.675000012       1.04067707       1.83716393E-03   1.04067862    
   1.06250000      0.725000024       1.03999305       2.47550034E-03   1.03999591    
   1.06250000      0.774999976       1.03625250       3.12671438E-03   1.03625727    
   1.06250000      0.825000048       1.01967788       3.73010430E-03   1.01968467    
   1.06250000      0.875000000      0.958557308       4.06384049E-03  0.958565950    
   1.06250000      0.925000012      0.776706100       3.52227129E-03  0.776714087    
   1.06250000      0.975000024      0.360980392       1.46215048E-03  0.360983342    
   1.06250000       1.00000000       0.00000000       0.00000000       0.00000000    
   1.18750000       0.00000000       0.00000000       0.00000000       0.00000000    
   1.18750000       2.50000004E-02  0.361688554      -1.66636601E-03  0.361692369    
   1.18750000       7.50000030E-02  0.771503687      -3.95081565E-03  0.771513820    
   1.18750000      0.125000000      0.950045228      -4.53538913E-03  0.950056016    
   1.18750000      0.175000012       1.01003838      -4.24466375E-03   1.01004732    
   1.18750000      0.224999994       1.02634764      -3.67466127E-03   1.02635419    
   1.18750000      0.275000006       1.03007030      -3.04179802E-03   1.03007483    
   1.18750000      0.324999988       1.03079128      -2.40507396E-03   1.03079414    
   1.18750000      0.375000000       1.03089857      -1.77671481E-03   1.03090012    
   1.18750000      0.425000012       1.03090024      -1.15725072E-03   1.03090096    
   1.18750000      0.475000024       1.03089190      -5.43809147E-04   1.03089201    
   1.18750000      0.524999976       1.03089046       6.76152413E-05   1.03089046    
   1.18750000      0.575000048       1.03089499       6.81161648E-04   1.03089523    
   1.18750000      0.625000000       1.03089011       1.30080362E-03   1.03089094    
   1.18750000      0.675000012       1.03077888       1.92976953E-03   1.03078067    
   1.18750000      0.725000024       1.03005445       2.56765960E-03   1.03005767    
   1.18750000      0.774999976       1.02632749       3.20196897E-03   1.02633250    
   1.18750000      0.825000048       1.01000917       3.77386855E-03   1.01001620    
   1.18750000      0.875000000      0.949994087       4.06770129E-03  0.950002789    
   1.18750000      0.925000012      0.771411777       3.49354511E-03  0.771419704    
   1.18750000      0.975000024      0.361588746       1.44195114E-03  0.361591637    
   1.18750000       1.00000000       0.00000000       0.00000000       0.00000000    
   1.31250000       0.00000000       0.00000000       0.00000000       0.00000000    
   1.31250000       2.50000004E-02  0.362033427      -1.64358539E-03  0.362037152    
   1.31250000       7.50000030E-02  0.766057849      -3.90587794E-03  0.766067803    
   1.31250000      0.125000000      0.941378772      -4.50119283E-03  0.941389561    
   1.31250000      0.175000012       1.00026250      -4.23154002E-03   1.00027144    
   1.31250000      0.224999994       1.01629198      -3.68079450E-03   1.01629865    
   1.31250000      0.275000006       1.01997137      -3.06099234E-03   1.01997602    
   1.31250000      0.324999988       1.02070260      -2.43045017E-03   1.02070546    
   1.31250000      0.375000000       1.02082825      -1.80179207E-03   1.02082980    
   1.31250000      0.425000012       1.02084422      -1.17659091E-03   1.02084494    
   1.31250000      0.475000024       1.02084351      -5.53911959E-04   1.02084363    
   1.31250000      0.524999976       1.02084160       6.80340017E-05   1.02084160    
   1.31250000      0.575000048       1.02083814       6.91020570E-04   1.02083838    
   1.31250000      0.625000000       1.02081823       1.31659221E-03   1.02081919    
   1.31250000      0.675000012       1.02068841       1.94585032E-03   1.02069020    
   1.31250000      0.725000024       1.01995337       2.57716863E-03   1.01995671    
   1.31250000      0.774999976       1.01626921       3.19804857E-03   1.01627421    
   1.31250000      0.825000048       1.00023067       3.75071983E-03   1.00023770    
   1.31250000      0.875000000      0.941325307       4.02324274E-03  0.941333890    
   1.31250000      0.925000012      0.765964508       3.43820406E-03  0.765972197    
   1.31250000      0.975000024      0.361931264       1.41405710E-03  0.361934036    
   1.31250000       1.00000000       0.00000000       0.00000000       0.00000000    
   1.43750000       0.00000000       0.00000000       0.00000000       0.00000000    
   1.43750000       2.50000004E-02  0.362073332      -1.61716389E-03  0.362076938    
   1.43750000       7.50000030E-02  0.760406256      -3.84850940E-03  0.760415971    
   1.43750000      0.125000000      0.932555616      -4.44508204E-03  0.932566166    
   1.43750000      0.175000012      0.990335822      -4.18851711E-03  0.990344644    
   1.43750000      0.224999994       1.00607669      -3.65181360E-03   1.00608337    
   1.43750000      0.275000006       1.00970006      -3.04405321E-03   1.00970459    
   1.43750000      0.324999988       1.01042914      -2.42243661E-03   1.01043200    
   1.43750000      0.375000000       1.01056147      -1.79989194E-03   1.01056314    
   1.43750000      0.425000012       1.01058388      -1.17854553E-03   1.01058459    
   1.43750000      0.475000024       1.01058650      -5.58025960E-04   1.01058662    
   1.43750000      0.524999976       1.01058435       6.22622465E-05   1.01058435    
   1.43750000      0.575000048       1.01057732       6.82851765E-04   1.01057756    
   1.43750000      0.625000000       1.01055050       1.30434020E-03   1.01055133    
   1.43750000      0.675000012       1.01041377       1.92715973E-03   1.01041555    
   1.43750000      0.725000024       1.00968075       2.54941871E-03   1.00968397    
   1.43750000      0.774999976       1.00605202       3.15825641E-03   1.00605702    
   1.43750000      0.825000048      0.990302205       3.69645888E-03  0.990309119    
   1.43750000      0.875000000      0.932500958       3.95574793E-03  0.932509363    
   1.43750000      0.925000012      0.760312557       3.36977188E-03  0.760320008    
   1.43750000      0.975000024      0.361969948       1.38219260E-03  0.361972570    
   1.43750000       1.00000000       0.00000000       0.00000000       0.00000000    
   1.56250000       0.00000000       0.00000000       0.00000000       0.00000000    
   1.56250000       2.50000004E-02  0.361784339      -1.58852444E-03  0.361787826    
   1.56250000       7.50000030E-02  0.754520893      -3.78462486E-03  0.754530370    
   1.56250000      0.125000000      0.923549592      -4.37826151E-03  0.923559964    
   1.56250000      0.175000012      0.980236590      -4.13141772E-03  0.980245292    
   1.56250000      0.224999994      0.995686650      -3.60697531E-03  0.995693147    
   1.56250000      0.275000006      0.999248981      -3.01095983E-03  0.999253511    
   1.56250000      0.324999988      0.999969959      -2.39969930E-03  0.999972820    
   1.56250000      0.375000000       1.00010407      -1.78617449E-03   1.00010562    
   1.56250000      0.425000012       1.00012910      -1.17290043E-03   1.00012982    
   1.56250000      0.475000024       1.00013316      -5.59984241E-04   1.00013328    
   1.56250000      0.524999976       1.00013077       5.28758246E-05   1.00013077    
   1.56250000      0.575000048       1.00012195       6.65991392E-04   1.00012219    
   1.56250000      0.625000000       1.00009251       1.27956294E-03   1.00009334    
   1.56250000      0.675000012      0.999953866       1.89345423E-03  0.999955654    
   1.56250000      0.725000024      0.999228537       2.50515295E-03  0.999231696    
   1.56250000      0.774999976      0.995660663       3.10194120E-03  0.995665491    
   1.56250000      0.825000048      0.980201960       3.62766022E-03  0.980208695    
   1.56250000      0.875000000      0.923494577       3.87716433E-03  0.923502684    
   1.56250000      0.925000012      0.754427671       3.29456083E-03  0.754434884    
   1.56250000      0.975000024      0.361681104       1.34806230E-03  0.361683637    
   1.56250000       1.00000000       0.00000000       0.00000000       0.00000000    
   1.68750000       0.00000000       0.00000000       0.00000000       0.00000000    
   1.68750000       2.50000004E-02  0.361151993      -1.55877077E-03  0.361155361    
   1.68750000       7.50000030E-02  0.748386025      -3.71731771E-03  0.748395264    
   1.68750000      0.125000000      0.914346397      -4.30602487E-03  0.914356530    
   1.68750000      0.175000012      0.969952285      -4.06768965E-03  0.969960868    
   1.68750000      0.224999994      0.985112071      -3.55468015E-03  0.985118508    
   1.68750000      0.275000006      0.988611221      -2.97005335E-03  0.988615692    
   1.68750000      0.324999988      0.989321411      -2.36993004E-03  0.989324212    
   1.68750000      0.375000000      0.989455104      -1.76707259E-03  0.989456713    
   1.68750000      0.425000012      0.989481091      -1.16393971E-03  0.989481747    
   1.68750000      0.475000024      0.989485502      -5.60867367E-04  0.989485681    
   1.68750000      0.524999976      0.989482999       4.22103330E-05  0.989482999    
   1.68750000      0.575000048      0.989473522       6.45357009E-04  0.989473760    
   1.68750000      0.625000000      0.989443183       1.24861929E-03  0.989443958    
   1.68750000      0.675000012      0.989304721       1.85172306E-03  0.989306450    
   1.68750000      0.725000024      0.988589764       2.45236000E-03  0.988592803    
   1.68750000      0.774999976      0.985085011       3.03784874E-03  0.985089719    
   1.68750000      0.825000048      0.969917059       3.55232600E-03  0.969923556    
   1.68750000      0.875000000      0.914291382       3.79343587E-03  0.914299250    
   1.68750000      0.925000012      0.748293757       3.21591552E-03  0.748300672    
   1.68750000      0.975000024      0.361049652       1.31272199E-03  0.361052036    
   1.68750000       1.00000000       0.00000000       0.00000000       0.00000000    
   1.81250000       0.00000000       0.00000000       0.00000000       0.00000000    
   1.81250000       2.50000004E-02  0.360167116      -1.52862037E-03  0.360170364    
   1.81250000       7.50000030E-02  0.741991997      -3.64883384E-03  0.742000937    
   1.81250000      0.125000000      0.904937029      -4.23177332E-03  0.904946923    
   1.81250000      0.175000012      0.959475040      -4.00115829E-03  0.959483385    
   1.81250000      0.224999994      0.974345982      -3.49930814E-03  0.974352241    
   1.81250000      0.275000006      0.977781177      -2.92634126E-03  0.977785587    
   1.81250000      0.324999988      0.978479385      -2.33769836E-03  0.978482187    
   1.81250000      0.375000000      0.978611469      -1.74597069E-03  0.978613019    
   1.81250000      0.425000012      0.978637457      -1.15369214E-03  0.978638113    
   1.81250000      0.475000024      0.978642225      -5.61417372E-04  0.978642404    
   1.81250000      0.524999976      0.978639662       3.07798764E-05  0.978639662    
   1.81250000      0.575000048      0.978629947       6.23023487E-04  0.978630185    
   1.81250000      0.625000000      0.978599370       1.21526211E-03  0.978600144    
   1.81250000      0.675000012      0.978462219       1.80712808E-03  0.978463888    
   1.81250000      0.725000024      0.977758765       2.39642896E-03  0.977761686    
   1.81250000      0.774999976      0.974318266       2.97035743E-03  0.974322796    