 TITLE= "TESTPLOT" 
 VARIABLES="x","y","fx","fy","magf" 
 ZONE T="1", I=          81 , J=          21
   0.00000000       0.00000000       1.00000000       0.00000000       1.00000000    
   0.00000000       2.50000004E-02   1.00000000       0.00000000       1.00000000    
   0.00000000       7.50000030E-02   1.00000000       0.00000000       1.00000000    
   0.00000000      0.125000000       1.00000000       0.00000000       1.00000000    
   0.00000000      0.175000012       1.00000000       0.00000000       1.00000000    
   0.00000000      0.224999994       1.00000000       0.00000000       1.00000000    
   0.00000000      0.275000006       1.00000000       0.00000000       1.00000000    
   0.00000000      0.324999988       1.00000000       0.00000000       1.00000000    
   0.00000000      0.375000000       1.00000000       0.00000000       1.00000000    
   0.00000000      0.425000012       1.00000000       0.00000000       1.00000000    
   0.00000000      0.475000024       1.00000000       0.00000000       1.00000000    
   0.00000000      0.524999976       1.00000000       0.00000000       1.00000000    
   0.00000000      0.575000048       1.00000000       0.00000000       1.00000000    
   0.00000000      0.625000000       1.00000000       0.00000000       1.00000000    
   0.00000000      0.675000012       1.00000000       0.00000000       1.00000000    
   0.00000000      0.725000024       1.00000000       0.00000000       1.00000000    
   0.00000000      0.774999976       1.00000000       0.00000000       1.00000000    
   0.00000000      0.825000048       1.00000000       0.00000000       1.00000000    
   0.00000000      0.875000000       1.00000000       0.00000000       1.00000000    
   0.00000000      0.925000012       1.00000000       0.00000000       1.00000000    
   0.00000000      0.975000024       1.00000000       0.00000000       1.00000000    
   0.00000000       1.00000000       1.00000000       0.00000000       1.00000000    
   6.25000000E-02   0.00000000      0.500000000       0.00000000      0.500000000    
   6.25000000E-02   2.50000004E-02  0.716364503      0.111047879      0.724920511    
   6.25000000E-02   7.50000030E-02  0.919890761      0.251551479      0.953665137    
   6.25000000E-02  0.125000000       1.01060915      0.274179816       1.04714155    
   6.25000000E-02  0.175000012       1.04546523      0.246584281       1.07415140    
   6.25000000E-02  0.224999994       1.05365241      0.201773852       1.07279825    
   6.25000000E-02  0.275000006       1.05036116      0.155006140       1.06173706    
   6.25000000E-02  0.324999988       1.04335928      0.112356208       1.04939151    
   6.25000000E-02  0.375000000       1.03643215       7.52780512E-02   1.03916228    
   6.25000000E-02  0.425000012       1.03128636       4.30291109E-02   1.03218365    
   6.25000000E-02  0.475000024       1.02860522       1.39109585E-02   1.02869928    
   6.25000000E-02  0.524999976       1.02861094      -1.41371721E-02   1.02870810    
   6.25000000E-02  0.575000048       1.03130460      -4.32650335E-02   1.03221178    
   6.25000000E-02  0.625000000       1.03646398      -7.55338371E-02   1.03921270    
   6.25000000E-02  0.675000012       1.04340553     -0.112642795       1.04946816    
   6.25000000E-02  0.725000024       1.05042410     -0.155335695       1.06184745    
   6.25000000E-02  0.774999976       1.05373263     -0.202159271       1.07294965    
   6.25000000E-02  0.825000048       1.04556060     -0.247037396       1.07434845    
   6.25000000E-02  0.875000000       1.01071322     -0.274708450       1.04738057    
   6.25000000E-02  0.925000012      0.919990778     -0.252145469      0.953918457    
   6.25000000E-02  0.975000024      0.716435373     -0.111358091      0.725038111    
   6.25000000E-02   1.00000000      0.500000000       0.00000000      0.500000000    
  0.187500000       0.00000000       0.00000000       0.00000000       0.00000000    
  0.187500000       2.50000004E-02  0.338587552       3.52292284E-02  0.340415388    
  0.187500000       7.50000030E-02  0.729535162      0.111942634      0.738073647    
  0.187500000      0.125000000      0.947514653      0.180297136      0.964515984    
  0.187500000      0.175000012       1.06080699      0.216607347       1.08269584    
  0.187500000      0.224999994       1.11257792      0.221329093       1.13437915    
  0.187500000      0.275000006       1.13023472      0.202197462       1.14817870    
  0.187500000      0.324999988       1.13088882      0.167507470       1.14322710    
  0.187500000      0.375000000       1.12490678      0.123805799       1.13169932    
  0.187500000      0.425000012       1.11830640       7.54789710E-02   1.12085068    
  0.187500000      0.475000024       1.11431813       2.51260437E-02   1.11460137    
  0.187500000      0.524999976       1.11433589      -2.57790163E-02   1.11463404    
  0.187500000      0.575000048       1.11836100      -7.61417076E-02   1.12094998    
  0.187500000      0.625000000       1.12499797     -0.124486789       1.13186455    
  0.187500000      0.675000012       1.13101435     -0.168212265       1.14345479    
  0.187500000      0.725000024       1.13039327     -0.202927828       1.14846361    
  0.187500000      0.774999976       1.11276317     -0.222081482       1.13470793    
  0.187500000      0.825000048       1.06100821     -0.217371911       1.08304608    
  0.187500000      0.875000000      0.947714627     -0.181058377      0.964855015    
  0.187500000      0.925000012      0.729709148     -0.112673320      0.738356709    
  0.187500000      0.975000024      0.338699192      -3.55824083E-02  0.340563118    
  0.187500000       1.00000000       0.00000000       0.00000000       0.00000000    
  0.312500000       0.00000000       0.00000000       0.00000000       0.00000000    
  0.312500000       2.50000004E-02  0.212824404       1.02214487E-02  0.213069722    
  0.312500000       7.50000030E-02  0.558076441       4.23137695E-02  0.559678257    
  0.312500000      0.125000000      0.812589586       8.60625505E-02  0.817134380    
  0.312500000      0.175000012      0.986560822      0.122980401      0.994196355    
  0.312500000      0.224999994       1.09721017      0.143668413       1.10657620    
  0.312500000      0.275000006       1.16218591      0.145732895       1.17128742    
  0.312500000      0.324999988       1.19675660      0.130862445       1.20389009    
  0.312500000      0.375000000       1.21287370      0.102597892       1.21720541    
  0.312500000      0.425000012       1.21911144       6.49838746E-02   1.22084212    
  0.312500000      0.475000024       1.22092462       2.19403207E-02   1.22112179    
  0.312500000      0.524999976       1.22094774      -2.28740033E-02   1.22116196    
  0.312500000      0.575000048       1.21918154      -6.59165159E-02   1.22096217    
  0.312500000      0.625000000       1.21298528     -0.103526726       1.21739519    
  0.312500000      0.675000012       1.19690084     -0.131782681       1.20413387    
  0.312500000      0.725000024       1.16235161     -0.146637172       1.17156470    
  0.312500000      0.774999976       1.09738231     -0.144546822       1.10686123    
  0.312500000      0.825000048      0.986722708     -0.123822153      0.994461477    
  0.312500000      0.875000000      0.812725663      -8.68583694E-02  0.817353904    
  0.312500000      0.925000012      0.558174610      -4.30510081E-02  0.559832394    
  0.312500000      0.975000024      0.212878972      -1.05732074E-02  0.213141382    
  0.312500000       1.00000000       0.00000000       0.00000000       0.00000000    
  0.437500000       0.00000000       0.00000000       0.00000000       0.00000000    
  0.437500000       2.50000004E-02  0.168315515       2.72793556E-03  0.168337613    
  0.437500000       7.50000030E-02  0.466203421       1.51062850E-02  0.466448098    
  0.437500000      0.125000000      0.714316607       3.69667895E-02  0.715272546    
  0.437500000      0.175000012      0.909281611       5.98303974E-02  0.911247909    
  0.437500000      0.224999994       1.05422580       7.68130422E-02   1.05702043    
  0.437500000      0.275000006       1.15627646       8.38736445E-02   1.15931439    
  0.437500000      0.324999988       1.22417951       7.97073692E-02   1.22677171    
  0.437500000      0.375000000       1.26650059       6.51210546E-02   1.26817369    
  0.437500000      0.425000012       1.29043531       4.23239321E-02   1.29112923    
  0.437500000      0.475000024       1.30109370       1.43397190E-02   1.30117273    
  0.437500000      0.524999976       1.30110955      -1.54089956E-02   1.30120087    
  0.437500000      0.575000048       1.29048312      -4.33825329E-02   1.29121208    
  0.437500000      0.625000000       1.26657128      -6.61579296E-02   1.26829803    
  0.437500000      0.675000012       1.22426224      -8.07114840E-02   1.22691989    
  0.437500000      0.725000024       1.15635777      -8.48347843E-02   1.15946555    
  0.437500000      0.774999976       1.05429232      -7.77226090E-02   1.05715334    
  0.437500000      0.825000048      0.909323096      -6.06826097E-02  0.911345601    
  0.437500000      0.875000000      0.714332283      -3.77605930E-02  0.715329587    
  0.437500000      0.925000012      0.466202796      -1.58381388E-02  0.466471732    
  0.437500000      0.975000024      0.168321729      -3.07727209E-03  0.168349847    
  0.437500000       1.00000000       0.00000000       0.00000000       0.00000000    
  0.562500000       0.00000000       0.00000000       0.00000000       0.00000000    
  0.562500000       2.50000004E-02  0.149394706      -1.31213001E-05  0.149394706    
  0.562500000       7.50000030E-02  0.419788420       3.66208144E-03  0.419804394    
  0.562500000      0.125000000      0.656169415       1.31788328E-02  0.656301737    
  0.562500000      0.175000012      0.854711115       2.49645542E-02  0.855075598    
  0.562500000      0.224999994       1.01451612       3.52607295E-02   1.01512873    
  0.562500000      0.275000006       1.13750207       4.11629006E-02   1.13824666    
  0.562500000      0.324999988       1.22755790       4.10580076E-02   1.22824430    
  0.562500000      0.375000000       1.28943825       3.46888304E-02   1.28990471    
  0.562500000      0.425000012       1.32770491       2.29739994E-02   1.32790363    
  0.562500000      0.475000024       1.34588504       7.70465331E-03   1.34590709    
  0.562500000      0.524999976       1.34588528      -8.80248845E-03   1.34591413    
  0.562500000      0.575000048       1.32770491      -2.40566060E-02   1.32792282    
  0.562500000      0.625000000       1.28943050      -3.57422940E-02   1.28992581    
  0.562500000      0.675000012       1.22753453      -4.20702063E-02   1.22825527    
  0.562500000      0.725000024       1.13745475      -4.21238095E-02   1.13823450    
  0.562500000      0.774999976       1.01444101      -3.61637101E-02   1.01508546    
  0.562500000      0.825000048      0.854610801      -2.58076563E-02  0.855000377    
  0.562500000      0.875000000      0.656058550      -1.39645990E-02  0.656207144    
  0.562500000      0.925000012      0.419695824      -4.38896148E-03  0.419718772    
  0.562500000      0.975000024      0.149362490      -3.34665063E-04  0.149362862    
  0.562500000       1.00000000       0.00000000       0.00000000       0.00000000    
  0.687500000       0.00000000       0.00000000       0.00000000       0.00000000    
  0.687500000       2.50000004E-02  0.140231043      -1.17358041E-03  0.140235946    
  0.687500000       7.50000030E-02  0.395383924      -1.49948918E-03  0.395386785    
  0.687500000      0.125000000      0.622687399       1.69340929E-03  0.622689724    
  0.687500000      0.175000012      0.819538713       6.93410635E-03  0.819568038    
  0.687500000      0.224999994      0.984393835       1.23246778E-02  0.984470963    
  0.687500000      0.275000006       1.11719966       1.61633566E-02   1.11731660    
  0.687500000      0.324999988       1.21925855       1.72811337E-02   1.21938097    
  0.687500000      0.375000000       1.29273677       1.52234174E-02   1.29282641    
  0.687500000      0.425000012       1.34001589       1.02674095E-02   1.34005523    
  0.687500000      0.475000024       1.36308634       3.30480863E-03   1.36309040    
  0.687500000      0.524999976       1.36306787      -4.36837738E-03   1.36307490    
  0.687500000      0.575000048       1.33996058      -1.13161020E-02   1.34000838    
  0.687500000      0.625000000       1.29264092      -1.62436217E-02   1.29274297    
  0.687500000      0.675000012       1.21912026      -1.82611644E-02   1.21925700    
  0.687500000      0.725000024       1.11701882      -1.70945562E-02   1.11714959    
  0.687500000      0.774999976      0.984178185      -1.32022314E-02  0.984266758    
  0.687500000      0.825000048      0.819303989      -7.75740016E-03  0.819340765    
  0.687500000      0.875000000      0.622462094      -2.46596523E-03  0.622466981    
  0.687500000      0.925000012      0.395211607       7.79062393E-04  0.395212382    
  0.687500000      0.975000024      0.140167430       8.27417010E-04  0.140169874    
  0.687500000       1.00000000       0.00000000       0.00000000       0.00000000    
  0.812500000       0.00000000       0.00000000       0.00000000       0.00000000    
  0.812500000       2.50000004E-02  0.135263592      -1.69016083E-03  0.135274157    
  0.812500000       7.50000030E-02  0.381446600      -3.87715315E-03  0.381466299    
  0.812500000      0.125000000      0.602340817      -3.79841449E-03  0.602352798    
  0.812500000      0.175000012      0.796279073      -2.02953676E-03  0.796281695    
  0.812500000      0.224999994      0.961837888       4.77314665E-04  0.961838007    
  0.812500000      0.275000006       1.09831810       2.78667314E-03   1.09832168    
  0.812500000      0.324999988       1.20582700       4.16823616E-03   1.20583415    
  0.812500000      0.375000000       1.28509116       4.23160102E-03   1.28509808    
  0.812500000      0.425000012       1.33711886       2.97959684E-03   1.33712220    
  0.812500000      0.475000024       1.36284089       7.74264103E-04   1.36284113    
  0.812500000      0.524999976       1.36280465      -1.77390373E-03   1.36280572    
  0.812500000      0.575000048       1.33701241      -3.96647770E-03   1.33701825    
  0.812500000      0.625000000       1.28491497      -5.19408099E-03   1.28492546    
  0.812500000      0.675000012       1.20558548      -5.09678386E-03   1.20559633    
  0.812500000      0.725000024       1.09802043      -3.67449736E-03   1.09802663    
  0.812500000      0.774999976      0.961501360      -1.32114626E-03  0.961502254    
  0.812500000      0.825000048      0.795930743       1.22963008E-03  0.795931697    
  0.812500000      0.875000000      0.602020919       3.03959800E-03  0.602028608    
  0.812500000      0.925000012      0.381209314       3.16258613E-03  0.381222427    
  0.812500000      0.975000024      0.135174409       1.34526799E-03  0.135181099    
  0.812500000       1.00000000       0.00000000       0.00000000       0.00000000    
  0.937500000       0.00000000       0.00000000       0.00000000       0.00000000    
  0.937500000       2.50000004E-02  0.132159024      -1.91778783E-03  0.132172942    
  0.937500000       7.50000030E-02  0.372427821      -4.95433807E-03  0.372460783    
  0.937500000      0.125000000      0.588562846      -6.35417923E-03  0.588597178    
  0.937500000      0.175000012      0.779453397      -6.31194934E-03  0.779478908    
  0.937500000      0.224999994      0.943871975      -5.32800052E-03  0.943886995    
  0.937500000      0.275000006       1.08093667      -3.92230600E-03   1.08094382    
  0.937500000      0.324999988       1.19024420      -2.54109479E-03   1.19024694    
  0.937500000      0.375000000       1.27180684      -1.47983443E-03   1.27180767    
  0.937500000      0.425000012       1.32588458      -8.42449022E-04   1.32588482    
  0.937500000      0.475000024       1.35279536      -5.47324657E-04   1.35279548    
  0.937500000      0.524999976       1.35274506      -3.79300967E-04   1.35274506    
  0.937500000      0.575000048       1.32573628      -7.45152065E-05   1.32573628    
  0.937500000      0.625000000       1.27156520       5.81556349E-04   1.27156532    
  0.937500000      0.675000012       1.18991995       1.66866556E-03   1.18992114    
  0.937500000      0.725000024       1.08054638       3.08062835E-03   1.08055079    
  0.937500000      0.774999976      0.943441212       4.51932196E-03  0.943452060    
  0.937500000      0.825000048      0.779018164       5.53609803E-03  0.779037833    
  0.937500000      0.875000000      0.588171959       5.60915656E-03  0.588198721    
  0.937500000      0.925000012      0.372142524       4.24578693E-03  0.372166753    
  0.937500000      0.975000024      0.132051528       1.57438114E-03  0.132060915    
  0.937500000       1.00000000       0.00000000       0.00000000       0.00000000    
   1.06250000       0.00000000       0.00000000       0.00000000       0.00000000    
   1.06250000       2.50000004E-02  0.129865646      -2.01318832E-03  0.129881248    
   1.06250000       7.50000030E-02  0.365654767      -5.42014465E-03  0.365694940    
   1.06250000      0.125000000      0.577916026      -7.48936087E-03  0.577964544    
   1.06250000      0.175000012      0.765849888      -8.25866219E-03  0.765894413    
   1.06250000      0.224999994      0.928367376      -8.02179240E-03  0.928402066    
   1.06250000      0.275000006       1.06455040      -7.09174294E-03   1.06457400    
   1.06250000      0.324999988       1.17379332      -5.75788645E-03   1.17380738    
   1.06250000      0.375000000       1.25578213      -4.24796809E-03   1.25578928    
   1.06250000      0.425000012       1.31041062      -2.70460173E-03   1.31041336    
   1.06250000      0.475000024       1.33768165      -1.18319946E-03   1.33768225    
   1.06250000      0.524999976       1.33762074       3.25409346E-04   1.33762085    
   1.06250000      0.575000048       1.31023133       1.85380329E-03   1.31023264    
   1.06250000      0.625000000       1.25549293       3.41041014E-03   1.25549757    
   1.06250000      0.675000012       1.17340875       4.93826205E-03   1.17341912    
   1.06250000      0.725000024       1.06409359       6.29314128E-03   1.06411219    
   1.06250000      0.774999976      0.927869737       7.24553550E-03  0.927898049    
   1.06250000      0.825000048      0.765353858       7.50463177E-03  0.765390694    
   1.06250000      0.875000000      0.577476382       6.75702933E-03  0.577515900    
   1.06250000      0.925000012      0.365337104       4.71725501E-03  0.365367562    
   1.06250000      0.975000024      0.129746318       1.67110527E-03  0.129757077    
   1.06250000       1.00000000       0.00000000       0.00000000       0.00000000    
   1.18750000       0.00000000       0.00000000       0.00000000       0.00000000    
   1.18750000       2.50000004E-02  0.127906516      -2.04977929E-03  0.127922937    
   1.18750000       7.50000030E-02  0.359857440      -5.60645293E-03  0.359901100    
   1.18750000      0.125000000      0.568684697      -7.95855932E-03  0.568740368    
   1.18750000      0.175000012      0.753761530      -9.08470806E-03  0.753816247    
   1.18750000      0.224999994      0.914079309      -9.18973051E-03  0.914125502    
   1.18750000      0.275000006       1.04872239      -8.48995987E-03   1.04875672    
   1.18750000      0.324999988       1.15701199      -7.19596958E-03   1.15703428    
   1.18750000      0.375000000       1.23850060      -5.49616572E-03   1.23851275    
   1.18750000      0.425000012       1.29291868      -3.54535459E-03   1.29292357    
   1.18750000      0.475000024       1.32012343      -1.46203465E-03   1.32012427    
   1.18750000      0.524999976       1.32005572       6.63344865E-04   1.32005596    
   1.18750000      0.575000048       1.29271877       2.75094854E-03   1.29272163    
   1.18750000      0.625000000       1.23817945       4.70982864E-03   1.23818839    
   1.18750000      0.675000012       1.15658808       6.42048661E-03   1.15660584    
   1.18750000      0.725000024       1.04822206       7.72713963E-03   1.04825056    
   1.18750000      0.774999976      0.913538575       8.44029896E-03  0.913577557    
   1.18750000      0.825000048      0.753226995       8.34897906E-03  0.753273249    
   1.18750000      0.875000000      0.568214536       7.23675918E-03  0.568260610    
   1.18750000      0.925000012      0.359520167       4.90779895E-03  0.359553635    
   1.18750000      0.975000024      0.127779812       1.70852523E-03  0.127791241    
   1.18750000       1.00000000       0.00000000       0.00000000       0.00000000    
   1.31250000       0.00000000       0.00000000       0.00000000       0.00000000    
   1.31250000       2.50000004E-02  0.126070589      -2.06068554E-03  0.126087427    
   1.31250000       7.50000030E-02  0.354451209      -5.66947088E-03  0.354496539    
   1.31250000      0.125000000      0.560048461      -8.12905654E-03  0.560107470    
   1.31250000      0.175000012      0.742337644      -9.39832535E-03  0.742397130    
   1.31250000      0.224999994      0.900350332      -9.64702666E-03  0.900402009    
   1.31250000      0.275000006       1.03317785      -9.04999673E-03   1.03321743    
   1.31250000      0.324999988       1.14012051      -7.78119825E-03   1.14014709    
   1.31250000      0.375000000       1.22068369      -6.00867067E-03   1.22069848    
   1.31250000      0.425000012       1.27453482      -3.89003800E-03   1.27454078    
   1.31250000      0.475000024       1.30147159      -1.56995980E-03   1.30147254    
   1.31250000      0.524999976       1.30139971       8.16775137E-04   1.30139995    
   1.31250000      0.575000048       1.27432275       3.13886022E-03   1.27432668    
   1.31250000      0.625000000       1.22034395       5.26142959E-03   1.22035527    
   1.31250000      0.675000012       1.13967395       7.03926757E-03   1.13969576    
   1.31250000      0.725000024       1.03265297       8.31437390E-03   1.03268647    
   1.31250000      0.774999976      0.899786234       8.91822856E-03  0.899830401    
   1.31250000      0.825000048      0.741783261       8.67657736E-03  0.741833985    
   1.31250000      0.875000000      0.559563100       7.41528627E-03  0.559612215    
   1.31250000      0.925000012      0.354104340       4.97449096E-03  0.354139298    
   1.31250000      0.975000024      0.125940233       1.72042032E-03  0.125951990    
   1.31250000       1.00000000       0.00000000       0.00000000       0.00000000    
   1.43750000       0.00000000       0.00000000       0.00000000       0.00000000    
   1.43750000       2.50000004E-02  0.124269947      -2.06197146E-03  0.124287054    
   1.43750000       7.50000030E-02  0.349180102      -5.68305328E-03  0.349226356    
   1.43750000      0.125000000      0.551635623      -8.17492884E-03  0.551696181    
   1.43750000      0.175000012      0.731178522      -9.49265808E-03  0.731240153    
   1.43750000      0.224999994      0.886857271      -9.79430415E-03  0.886911333    
   1.43750000      0.275000006       1.01776600      -9.23851784E-03   1.01780796    
   1.43750000      0.324999988       1.12320352      -7.98375253E-03   1.12323189    
   1.43750000      0.375000000       1.20266283      -6.18848111E-03   1.20267880    
   1.43750000      0.425000012       1.25579429      -4.00978560E-03   1.25580072    
   1.43750000      0.475000024       1.28237641      -1.60252501E-03   1.28237748    
   1.43750000      0.524999976       1.28230274       8.80710897E-04   1.28230309    
   1.43750000      0.575000048       1.25557733       3.28851142E-03   1.25558162    
   1.43750000      0.625000000       1.20231521       5.46846539E-03   1.20232761    
   1.43750000      0.675000012       1.12274754       7.26545136E-03   1.12277102    
   1.43750000      0.725000024       1.01723242       8.52194615E-03   1.01726806    
   1.43750000      0.774999976      0.886285424       9.07965656E-03  0.886331916    
   1.43750000      0.825000048      0.730618596       8.78053717E-03  0.730671346    
   1.43750000      0.875000000      0.551147342       7.46701844E-03  0.551197946    
   1.43750000      0.925000012      0.348832190       4.99091391E-03  0.348867893    
   1.43750000      0.975000024      0.124139667       1.72242848E-03  0.124151617    
   1.43750000       1.00000000       0.00000000       0.00000000       0.00000000    
   1.56250000       0.00000000       0.00000000       0.00000000       0.00000000    
   1.56250000       2.50000004E-02  0.122472554      -2.06010067E-03  0.122489877    
   1.56250000       7.50000030E-02  0.343941808      -5.67940250E-03  0.343988687    
   1.56250000      0.125000000      0.543290496      -8.17506947E-03  0.543352008    
   1.56250000      0.175000012      0.720110059      -9.50338691E-03  0.720172763    
   1.56250000      0.224999994      0.873453140      -9.81983915E-03  0.873508334    
   1.56250000      0.275000006       1.00241351      -9.27796960E-03   1.00245643    
   1.56250000      0.324999988       1.10629094      -8.03044997E-03   1.10632014    
   1.56250000      0.375000000       1.18458164      -6.23155665E-03   1.18459809    
   1.56250000      0.425000012       1.23693585      -4.03751433E-03   1.23694241    
   1.56250000      0.475000024       1.26313066      -1.60593842E-03   1.26313174    
   1.56250000      0.524999976       1.26305711       9.04518121E-04   1.26305747    
   1.56250000      0.575000048       1.23671901       3.33553925E-03   1.23672354    
   1.56250000      0.625000000       1.18423390       5.52895851E-03   1.18424678    
   1.56250000      0.675000012       1.10583496       7.32698012E-03   1.10585916    
   1.56250000      0.725000024       1.00188100       8.57353583E-03   1.00191772    
   1.56250000      0.774999976      0.872884035       9.11455136E-03  0.872931600    
   1.56250000      0.825000048      0.719554007       8.79761484E-03  0.719607770    
   1.56250000      0.875000000      0.542806745       7.47060310E-03  0.542858183    
   1.56250000      0.925000012      0.343598247       4.98872111E-03  0.343634456    
   1.56250000      0.975000024      0.122344673       1.72095455E-03  0.122356780    
   1.56250000       1.00000000       0.00000000       0.00000000       0.00000000    
   1.68750000       0.00000000       0.00000000       0.00000000       0.00000000    
   1.68750000       2.50000004E-02  0.120670117      -2.05756747E-03  0.120687656    
   1.68750000       7.50000030E-02  0.338702738      -5.67135774E-03  0.338750213    
   1.68750000      0.125000000      0.534956336      -8.16212129E-03  0.535018623    
   1.68750000      0.175000012      0.709064364      -9.48814116E-03  0.709127843    
   1.68750000      0.224999994      0.860078156      -9.80528258E-03  0.860134006    
   1.68750000      0.275000006      0.987086773      -9.26637370E-03  0.987130284    
   1.68750000      0.324999988       1.08939195      -8.02266039E-03   1.08942151    
   1.68750000      0.375000000       1.16649675      -6.22647163E-03   1.16651332    
   1.68750000      0.425000012       1.21805739      -4.03328473E-03   1.21806407    
   1.68750000      0.475000024       1.24385476      -1.60119275E-03   1.24385583    
   1.68750000      0.524999976       1.24378204       9.10746981E-04   1.24378240    
   1.68750000      0.575000048       1.21784282       3.34232254E-03   1.21784747    
   1.68750000      0.625000000       1.16615319       5.53380698E-03   1.16616631    
   1.68750000      0.675000012       1.08894169       7.32767861E-03   1.08896637    
   1.68750000      0.725000024      0.986560941       8.56874604E-03  0.986598134    
   1.68750000      0.774999976      0.859516621       9.10466164E-03  0.859564841    
   1.68750000      0.825000048      0.708516479       8.78518634E-03  0.708570957    
   1.68750000      0.875000000      0.534480155       7.45921489E-03  0.534532189    
   1.68750000      0.925000012      0.338365138       4.98140138E-03  0.338401794    
   1.68750000      0.975000024      0.120544717       1.71863253E-03  0.120556965    
   1.68750000       1.00000000       0.00000000       0.00000000       0.00000000    
   1.81250000       0.00000000       0.00000000       0.00000000       0.00000000    
   1.81250000       2.50000004E-02  0.118861303      -2.05536373E-03  0.118879072    
   1.81250000       7.50000030E-02  0.333454430      -5.66386618E-03  0.333502531    
   1.81250000      0.125000000      0.526615918      -8.14863760E-03  0.526678979    
   1.81250000      0.175000012      0.698018730      -9.46971960E-03  0.698082983    
   1.81250000      0.224999994      0.846709907      -9.78405681E-03  0.846766472    
   1.81250000      0.275000006      0.971771717      -9.24474746E-03  0.971815705    
   1.81250000      0.324999988       1.07250738      -8.00277852E-03   1.07253730    
   1.81250000      0.375000000       1.14842606      -6.21042447E-03   1.14844286    
   1.81250000      0.425000012       1.19919193      -4.02237475E-03   1.19919872    
   1.81250000      0.475000024       1.22459078      -1.59587141E-03   1.22459185    
   1.81250000      0.524999976       1.22451901       9.09939234E-04   1.22451937    
   1.81250000      0.575000048       1.19898069       3.33548477E-03   1.19898534    
   1.81250000      0.625000000       1.14808846       5.52168954E-03   1.14810181    
   1.81250000      0.675000012       1.07206535       7.31118163E-03   1.07209027    
   1.81250000      0.725000024      0.971255898       8.54951888E-03  0.971293509    
   1.81250000      0.774999976      0.846159458       9.08507686E-03  0.846208215    