 TITLE= "TESTPLOT" 
 VARIABLES="x","y","fx","fy","magf" 
 ZONE T="1", I=          81 , J=          21
   0.00000000       0.00000000       1.00000000       0.00000000       1.00000000    
   0.00000000       2.50000004E-02   1.00000000       0.00000000       1.00000000    
   0.00000000       7.50000030E-02   1.00000000       0.00000000       1.00000000    
   0.00000000      0.125000000       1.00000000       0.00000000       1.00000000    
   0.00000000      0.175000012       1.00000000       0.00000000       1.00000000    
   0.00000000      0.224999994       1.00000000       0.00000000       1.00000000    
   0.00000000      0.275000006       1.00000000       0.00000000       1.00000000    
   0.00000000      0.324999988       1.00000000       0.00000000       1.00000000    
   0.00000000      0.375000000       1.00000000       0.00000000       1.00000000    
   0.00000000      0.425000012       1.00000000       0.00000000       1.00000000    
   0.00000000      0.475000024       1.00000000       0.00000000       1.00000000    
   0.00000000      0.524999976       1.00000000       0.00000000       1.00000000    
   0.00000000      0.575000048       1.00000000       0.00000000       1.00000000    
   0.00000000      0.625000000       1.00000000       0.00000000       1.00000000    
   0.00000000      0.675000012       1.00000000       0.00000000       1.00000000    
   0.00000000      0.725000024       1.00000000       0.00000000       1.00000000    
   0.00000000      0.774999976       1.00000000       0.00000000       1.00000000    
   0.00000000      0.825000048       1.00000000       0.00000000       1.00000000    
   0.00000000      0.875000000       1.00000000       0.00000000       1.00000000    
   0.00000000      0.925000012       1.00000000       0.00000000       1.00000000    
   0.00000000      0.975000024       1.00000000       0.00000000       1.00000000    
   0.00000000       1.00000000       1.00000000       0.00000000       1.00000000    
   6.25000000E-02   0.00000000      0.500000000       0.00000000      0.500000000    
   6.25000000E-02   2.50000004E-02  0.718237638      0.110495143      0.726687372    
   6.25000000E-02   7.50000030E-02  0.924514532      0.248808146      0.957409322    
   6.25000000E-02  0.125000000       1.01605105      0.267833054       1.05075896    
   6.25000000E-02  0.175000012       1.04973555      0.236774951       1.07610738    
   6.25000000E-02  0.224999994       1.05561209      0.189894885       1.07255626    
   6.25000000E-02  0.275000006       1.04993582      0.142935932       1.05962062    
   6.25000000E-02  0.324999988       1.04117036      0.101754159       1.04613078    
   6.25000000E-02  0.375000000       1.03327024       6.72384948E-02   1.03545558    
   6.25000000E-02  0.425000012       1.02774417       3.80930454E-02   1.02844989    
   6.25000000E-02  0.475000024       1.02497363       1.22660715E-02   1.02504706    
   6.25000000E-02  0.524999976       1.02497876      -1.24547174E-02   1.02505445    
   6.25000000E-02  0.575000048       1.02775931      -3.82895470E-02   1.02847230    
   6.25000000E-02  0.625000000       1.03329730      -6.74516782E-02   1.03549659    
   6.25000000E-02  0.675000012       1.04121113     -0.101994500       1.04619479    
   6.25000000E-02  0.725000024       1.04999304     -0.143215731       1.05971515    
   6.25000000E-02  0.774999976       1.05568647     -0.190227285       1.07268834    
   6.25000000E-02  0.825000048       1.04982567     -0.237172306       1.07628286    
   6.25000000E-02  0.875000000       1.01615143     -0.268303990       1.05097604    
   6.25000000E-02  0.925000012      0.924613237     -0.249344885      0.957644284    
   6.25000000E-02  0.975000024      0.718309283     -0.110777333      0.726801097    
   6.25000000E-02   1.00000000      0.500000000       0.00000000      0.500000000    
  0.187500000       0.00000000       0.00000000       0.00000000       0.00000000    
  0.187500000       2.50000004E-02  0.348777711       3.28446664E-02  0.350320786    
  0.187500000       7.50000030E-02  0.752928257      0.101723045      0.759768784    
  0.187500000      0.125000000      0.974872231      0.158244908      0.987632155    
  0.187500000      0.175000012       1.08312535      0.182869136       1.09845424    
  0.187500000      0.224999994       1.12407601      0.179462761       1.13831174    
  0.187500000      0.275000006       1.12939811      0.157708228       1.14035606    
  0.187500000      0.324999988       1.11946654      0.126244456       1.12656248    
  0.187500000      0.375000000       1.10608244       9.07749012E-02   1.10980105    
  0.187500000      0.425000012       1.09520125       5.42706661E-02   1.09654510    
  0.187500000      0.475000024       1.08935273       1.78208090E-02   1.08949852    
  0.187500000      0.524999976       1.08936691      -1.85076948E-02   1.08952403    
  0.187500000      0.575000048       1.09524322      -5.49639240E-02   1.09662151    
  0.187500000      0.625000000       1.10615468      -9.14806277E-02   1.10993111    
  0.187500000      0.675000012       1.11957026     -0.126966655       1.12674665    
  0.187500000      0.725000024       1.12953281     -0.158447474       1.14059198    
  0.187500000      0.774999976       1.12423587     -0.180214643       1.13858843    
  0.187500000      0.825000048       1.08329988     -0.183622777       1.09875190    
  0.187500000      0.875000000      0.975044608     -0.158982486      0.987920761    
  0.187500000      0.925000012      0.753078103     -0.102416515      0.760010421    
  0.187500000      0.975000024      0.348876655      -3.31760272E-02  0.350450516    
  0.187500000       1.00000000       0.00000000       0.00000000       0.00000000    
  0.312500000       0.00000000       0.00000000       0.00000000       0.00000000    
  0.312500000       2.50000004E-02  0.236773849       7.47871585E-03  0.236891940    
  0.312500000       7.50000030E-02  0.611868799       3.05245146E-02  0.612629712    
  0.312500000      0.125000000      0.875906110       6.03726953E-02  0.877984285    
  0.312500000      0.175000012       1.03984869       8.30142200E-02   1.04315698    
  0.312500000      0.224999994       1.12687850       9.29829404E-02   1.13070810    
  0.312500000      0.275000006       1.16303921       9.05342549E-02   1.16655755    
  0.312500000      0.324999988       1.17078495       7.83893168E-02   1.17340624    
  0.312500000      0.375000000       1.16617942       5.96685186E-02   1.16770494    
  0.312500000      0.425000012       1.15902472       3.69806178E-02   1.15961456    
  0.312500000      0.475000024       1.15442491       1.22478614E-02   1.15448987    
  0.312500000      0.524999976       1.15444279      -1.31075308E-02   1.15451717    
  0.312500000      0.575000048       1.15907812      -3.78402174E-02   1.15969563    
  0.312500000      0.625000000       1.16626692      -6.05271831E-02   1.16783643    
  0.312500000      0.675000012       1.17090201      -7.92438313E-02   1.17358041    
  0.312500000      0.725000024       1.16317654      -9.13784802E-02   1.16676033    
  0.312500000      0.774999976       1.12701941      -9.38078314E-02   1.13091671    
  0.312500000      0.825000048       1.03997254      -8.38080943E-02   1.04334402    
  0.312500000      0.875000000      0.875993490      -6.11231700E-02  0.878123343    
  0.312500000      0.925000012      0.611914873      -3.12160682E-02  0.612710595    
  0.312500000      0.975000024      0.236795768      -7.80737400E-03  0.236924440    
  0.312500000       1.00000000       0.00000000       0.00000000       0.00000000    
  0.437500000       0.00000000       0.00000000       0.00000000       0.00000000    
  0.437500000       2.50000004E-02  0.205276832       6.20048784E-04  0.205277771    
  0.437500000       7.50000030E-02  0.548939109       5.99887874E-03  0.548971891    
  0.437500000      0.125000000      0.812775373       1.68887340E-02  0.812950790    
  0.437500000      0.175000012      0.994284332       2.80479882E-02  0.994679868    
  0.437500000      0.224999994       1.10427141       3.56749408E-02   1.10484755    
  0.437500000      0.275000006       1.16147590       3.81207466E-02   1.16210127    
  0.437500000      0.324999988       1.18544674       3.53562236E-02   1.18597388    
  0.437500000      0.375000000       1.19192147       2.82458998E-02   1.19225609    
  0.437500000      0.425000012       1.19142604       1.80067495E-02   1.19156218    
  0.437500000      0.475000024       1.18990326       5.91766648E-03   1.18991792    
  0.437500000      0.524999976       1.18991888      -6.77896431E-03   1.18993819    
  0.437500000      0.575000048       1.19147182      -1.88645218E-02   1.19162118    
  0.437500000      0.625000000       1.19199359      -2.90960371E-02   1.19234872    
  0.437500000      0.675000012       1.18553579      -3.61938998E-02   1.18608809    
  0.437500000      0.725000024       1.16156816      -3.89399417E-02   1.16222072    
  0.437500000      0.774999976       1.10434675      -3.64688449E-02   1.10494876    
  0.437500000      0.825000048      0.994321108      -2.88098194E-02  0.994738400    
  0.437500000      0.875000000      0.812762260      -1.76132806E-02  0.812953115    
  0.437500000      0.925000012      0.548891425      -6.67679729E-03  0.548932076    
  0.437500000      0.975000024      0.205247089      -9.45497595E-04  0.205249265    
  0.437500000       1.00000000       0.00000000       0.00000000       0.00000000    
  0.562500000       0.00000000       0.00000000       0.00000000       0.00000000    
  0.562500000       2.50000004E-02  0.195683569      -1.31054118E-03  0.195687950    
  0.562500000       7.50000030E-02  0.523123026      -1.92931457E-03  0.523126602    
  0.562500000      0.125000000      0.780233204       7.78417394E-04  0.780233622    
  0.562500000      0.175000012      0.963883936       5.05946018E-03  0.963897228    
  0.562500000      0.224999994       1.08136523       9.02310014E-03   1.08140290    
  0.562500000      0.275000006       1.14794898       1.14207733E-02   1.14800572    
  0.562500000      0.324999988       1.18081450       1.17200855E-02   1.18087268    
  0.562500000      0.375000000       1.19442642       9.95294936E-03   1.19446790    
  0.562500000      0.425000012       1.19878376       6.51845802E-03   1.19880152    
  0.562500000      0.475000024       1.19968843       2.02155975E-03   1.19969010    
  0.562500000      0.524999976       1.19969940      -2.83701182E-03   1.19970274    
  0.562500000      0.575000048       1.19881463      -7.32989050E-03   1.19883704    
  0.562500000      0.625000000       1.19447279      -1.07564460E-02   1.19452119    
  0.562500000      0.675000012       1.18086624      -1.25116408E-02   1.18093252    
  0.562500000      0.725000024       1.14799047      -1.21960398E-02   1.14805520    
  0.562500000      0.774999976       1.08137727      -9.77828540E-03   1.08142149    
  0.562500000      0.825000048      0.963848591      -5.79103967E-03  0.963865995    
  0.562500000      0.875000000      0.780147433      -1.48387696E-03  0.780148864    
  0.562500000      0.925000012      0.523014545       1.25846569E-03  0.523016036    
  0.562500000      0.975000024      0.195623353       9.85714258E-04  0.195625842    
  0.562500000       1.00000000       0.00000000       0.00000000       0.00000000    
  0.687500000       0.00000000       0.00000000       0.00000000       0.00000000    
  0.687500000       2.50000004E-02  0.192223549      -1.86701585E-03  0.192232609    
  0.687500000       7.50000030E-02  0.510818958      -4.41638380E-03  0.510838032    
  0.687500000      0.125000000      0.761973441      -4.71674697E-03  0.761988044    
  0.687500000      0.175000012      0.943684578      -3.42307566E-03  0.943690836    
  0.687500000      0.224999994       1.06243348      -1.53860636E-03   1.06243455    
  0.687500000      0.275000006       1.13213181       1.61128322E-04   1.13213181    
  0.687500000      0.324999988       1.16871798       1.22627954E-03   1.16871870    
  0.687500000      0.375000000       1.18574476       1.50428200E-03   1.18574572    
  0.687500000      0.425000012       1.19263315       1.07108918E-03   1.19263363    
  0.687500000      0.475000024       1.19486856       1.55732923E-04   1.19486856    
  0.687500000      0.524999976       1.19487476      -9.28291411E-04   1.19487512    
  0.687500000      0.575000048       1.19265032      -1.84074743E-03   1.19265175    
  0.687500000      0.625000000       1.18576813      -2.26790085E-03   1.18577027    
  0.687500000      0.675000012       1.16873789      -1.98098016E-03   1.16873956    
  0.687500000      0.725000024       1.13213372      -9.04344721E-04   1.13213408    
  0.687500000      0.774999976       1.06239939       8.09322868E-04   1.06239974    
  0.687500000      0.825000048      0.943600416       2.70964438E-03  0.943604290    
  0.687500000      0.875000000      0.761841416       4.02062107E-03  0.761852026    
  0.687500000      0.925000012      0.510673642       3.74686671E-03  0.510687411    
  0.687500000      0.975000024      0.192145288       1.54107378E-03  0.192151472    
  0.687500000       1.00000000       0.00000000       0.00000000       0.00000000    
  0.812500000       0.00000000       0.00000000       0.00000000       0.00000000    
  0.812500000       2.50000004E-02  0.190450251      -2.02433323E-03  0.190461010    
  0.812500000       7.50000030E-02  0.502950549      -5.17354440E-03  0.502977133    
  0.812500000      0.125000000      0.749162078      -6.50426373E-03  0.749190331    
  0.812500000      0.175000012      0.928142250      -6.35029189E-03  0.928164005    
  0.812500000      0.224999994       1.04611468      -5.37969684E-03   1.04612851    
  0.812500000      0.275000006       1.11634326      -4.12347354E-03   1.11635089    
  0.812500000      0.324999988       1.15411711      -2.91848648E-03   1.15412080    
  0.812500000      0.375000000       1.17246270      -1.92857056E-03   1.17246425    
  0.812500000      0.425000012       1.18042290      -1.18351460E-03   1.18042350    
  0.812500000      0.475000024       1.18324816      -6.20720093E-04   1.18324828    
  0.812500000      0.524999976       1.18325090      -1.23914011E-04   1.18325090    
  0.812500000      0.575000048       1.18042994       4.41016513E-04   1.18043005    
  0.812500000      0.625000000       1.17246974       1.19023316E-03   1.17247033    
  0.812500000      0.675000012       1.15411496       2.18605227E-03   1.15411699    
  0.812500000      0.725000024       1.11631858       3.39841237E-03   1.11632371    
  0.812500000      0.774999976       1.04605103       4.66350373E-03   1.04606140    
  0.812500000      0.825000048      0.928027868       5.64436987E-03  0.928045034    
  0.812500000      0.875000000      0.749001980       5.81038557E-03  0.749024510    
  0.812500000      0.925000012      0.502783418       4.50188015E-03  0.502803564    
  0.812500000      0.975000024      0.190361202       1.69632782E-03  0.190368757    
  0.812500000       1.00000000       0.00000000       0.00000000       0.00000000    
  0.937500000       0.00000000       0.00000000       0.00000000       0.00000000    
  0.937500000       2.50000004E-02  0.189061642      -2.06524995E-03  0.189072922    
  0.937500000       7.50000030E-02  0.496409535      -5.39196376E-03  0.496438801    
  0.937500000      0.125000000      0.738202691      -7.06045702E-03  0.738236427    
  0.937500000      0.175000012      0.914375782      -7.31430668E-03  0.914405048    
  0.937500000      0.224999994       1.03096199      -6.70288270E-03   1.03098381    
  0.937500000      0.275000006       1.10077572      -5.65403514E-03   1.10079026    
  0.937500000      0.324999988       1.13868809      -4.44213767E-03   1.13869679    
  0.937500000      0.375000000       1.15740180      -3.21770273E-03   1.15740633    
  0.937500000      0.425000012       1.16572845      -2.04195199E-03   1.16573024    
  0.937500000      0.475000024       1.16877091      -9.17021185E-04   1.16877127    
  0.937500000      0.524999976       1.16877151       1.87709578E-04   1.16877151    
  0.937500000      0.575000048       1.16572905       1.31369464E-03   1.16572976    
  0.937500000      0.625000000       1.15739822       2.49212841E-03   1.15740085    
  0.937500000      0.675000012       1.13867164       3.72044952E-03   1.13867772    
  0.937500000      0.725000024       1.10073376       4.93705273E-03   1.10074484    
  0.937500000      0.774999976       1.03087997       5.99156041E-03   1.03089738    
  0.937500000      0.825000048      0.914243102       6.60976395E-03  0.914267004    
  0.937500000      0.875000000      0.738025904       6.36432553E-03  0.738053381    
  0.937500000      0.925000012      0.496229470       4.71521541E-03  0.496251881    
  0.937500000      0.975000024      0.188965991       1.73419027E-03  0.188973948    
  0.937500000       1.00000000       0.00000000       0.00000000       0.00000000    
   1.06250000       0.00000000       0.00000000       0.00000000       0.00000000    
   1.06250000       2.50000004E-02  0.187668592      -2.07262370E-03  0.187680036    
   1.06250000       7.50000030E-02  0.490171671      -5.44502307E-03  0.490201920    
   1.06250000      0.125000000      0.727778554      -7.21816812E-03  0.727814317    
   1.06250000      0.175000012      0.901178479      -7.61290733E-03  0.901210606    
   1.06250000      0.224999994       1.01620626      -7.13591557E-03   1.01623130    
   1.06250000      0.275000006       1.08527875      -6.17399346E-03   1.08529627    
   1.06250000      0.324999988       1.12293208      -4.97357361E-03   1.12294316    
   1.06250000      0.375000000       1.14163041      -3.67550552E-03   1.14163637    
   1.06250000      0.425000012       1.15002608      -2.35009752E-03   1.15002847    
   1.06250000      0.475000024       1.15312505      -1.02381781E-03   1.15312552    
   1.06250000      0.524999976       1.15312433       3.00536922E-04   1.15312433    
   1.06250000      0.575000048       1.15002227       1.62767060E-03   1.15002346    
   1.06250000      0.625000000       1.14161968       2.95473402E-03   1.14162350    
   1.06250000      0.675000012       1.12290633       4.25506383E-03   1.12291443    
   1.06250000      0.725000024       1.08522606       5.45820268E-03   1.08523977    
   1.06250000      0.774999976       1.01611280       6.42361026E-03   1.01613307    
   1.06250000      0.825000048      0.901035011       6.90522697E-03  0.901061475    
   1.06250000      0.875000000      0.727592230       6.51689013E-03  0.727621436    
   1.06250000      0.925000012      0.489984363       4.76144720E-03  0.490007490    
   1.06250000      0.975000024      0.187569365       1.73778227E-03  0.187577426    
   1.06250000       1.00000000       0.00000000       0.00000000       0.00000000    
   1.18750000       0.00000000       0.00000000       0.00000000       0.00000000    
   1.18750000       2.50000004E-02  0.186153799      -2.07102206E-03  0.186165318    
   1.18750000       7.50000030E-02  0.483902216      -5.44934534E-03  0.483932912    
   1.18750000      0.125000000      0.717426538      -7.25089852E-03  0.717463195    
   1.18750000      0.175000012      0.888087988      -7.69310258E-03  0.888121307    
   1.18750000      0.224999994       1.00151157      -7.26562645E-03   1.00153792    
   1.18750000      0.275000006       1.06973350      -6.33901777E-03   1.06975234    
   1.18750000      0.324999988       1.10698414      -5.14843268E-03   1.10699606    
   1.18750000      0.375000000       1.12552238      -3.82981286E-03   1.12552893    
   1.18750000      0.425000012       1.13387179      -2.45580543E-03   1.13387454    
   1.18750000      0.475000024       1.13696408      -1.06147700E-03   1.13696456    
   1.18750000      0.524999976       1.13696229       3.37882986E-04   1.13696229    
   1.18750000      0.575000048       1.13386500       1.73285813E-03   1.13386631    
   1.18750000      0.625000000       1.12550712       3.10786860E-03   1.12551141    
   1.18750000      0.675000012       1.10695267       4.42796713E-03   1.10696149    
   1.18750000      0.725000024       1.06967449       5.62056992E-03   1.06968927    
   1.18750000      0.774999976       1.00141132       6.54949155E-03   1.00143278    
   1.18750000      0.825000048      0.887938023       6.98011927E-03  0.887965441    
   1.18750000      0.875000000      0.717234731       6.54298905E-03  0.717264533    
   1.18750000      0.925000012      0.483710766       4.75808047E-03  0.483734161    
   1.18750000      0.975000024      0.186052203       1.73218607E-03  0.186060265    
   1.18750000       1.00000000       0.00000000       0.00000000       0.00000000    
   1.31250000       0.00000000       0.00000000       0.00000000       0.00000000    
   1.31250000       2.50000004E-02  0.184479684      -2.06747814E-03  0.184491262    
   1.31250000       7.50000030E-02  0.477489382      -5.44067053E-03  0.477520376    
   1.31250000      0.125000000      0.706983924      -7.24665681E-03  0.707021058    
   1.31250000      0.175000012      0.874931335      -7.70475063E-03  0.874965250    
   1.31250000      0.224999994      0.986740589      -7.29673263E-03  0.986767590    
   1.31250000      0.275000006       1.05407596      -6.38559088E-03   1.05409527    
   1.31250000      0.324999988       1.09087288      -5.20166848E-03   1.09088528    
   1.31250000      0.375000000       1.10919833      -3.87890125E-03   1.10920513    
   1.31250000      0.425000012       1.11745906      -2.49062874E-03   1.11746180    
   1.31250000      0.475000024       1.12052095      -1.07520074E-03   1.12052143    
   1.31250000      0.524999976       1.12051868       3.47447989E-04   1.12051868    
   1.31250000      0.575000048       1.11745048       1.76314753E-03   1.11745191    
   1.31250000      0.625000000       1.10918021       3.15214274E-03   1.10918462    
   1.31250000      0.675000012       1.09083772       4.47614584E-03   1.09084690    
   1.31250000      0.725000024       1.05401254       5.66143449E-03   1.05402780    
   1.31250000      0.774999976      0.986635923       6.57410081E-03  0.986657798    
   1.31250000      0.825000048      0.874776840       6.98432745E-03  0.874804735    
   1.31250000      0.875000000      0.706788659       6.53031375E-03  0.706818819    
   1.31250000      0.925000012      0.477295220       4.74070245E-03  0.477318764    
   1.31250000      0.975000024      0.184376270       1.72429567E-03  0.184384331    
   1.31250000       1.00000000       0.00000000       0.00000000       0.00000000    
   1.43750000       0.00000000       0.00000000       0.00000000       0.00000000    
   1.43750000       2.50000004E-02  0.182631224      -2.06419965E-03  0.182642892    
   1.43750000       7.50000030E-02  0.470891833      -5.42980572E-03  0.470923126    
   1.43750000      0.125000000      0.696390152      -7.23294914E-03  0.696427703    
   1.43750000      0.175000012      0.861641169      -7.69698434E-03  0.861675560    
   1.43750000      0.224999994      0.971835971      -7.29819853E-03  0.971863389    
   1.43750000      0.275000006       1.03827238      -6.39514392E-03   1.03829205    
   1.43750000      0.324999988       1.07459748      -5.21583762E-03   1.07461011    
   1.43750000      0.375000000       1.09269118      -3.89362080E-03   1.09269810    
   1.43750000      0.425000012       1.10084772      -2.50238692E-03   1.10085058    
   1.43750000      0.475000024       1.10387135      -1.08162221E-03   1.10387194    
   1.43750000      0.524999976       1.10386848       3.47185094E-04   1.10386860    
   1.43750000      0.575000048       1.10083795       1.76806794E-03   1.10083938    
   1.43750000      0.625000000       1.09267104       3.15959472E-03   1.09267569    
   1.43750000      0.675000012       1.07455969       4.48241364E-03   1.07456911    
   1.43750000      0.725000024       1.03820598       5.66253485E-03   1.03822148    
   1.43750000      0.774999976      0.971728563       6.56669866E-03  0.971750736    
   1.43750000      0.825000048      0.861484289       6.96752500E-03  0.861512482    
   1.43750000      0.875000000      0.696193457       6.50750659E-03  0.696223855    
   1.43750000      0.925000012      0.470696807       4.72061103E-03  0.470720470    
   1.43750000      0.975000024      0.182526916       1.71636953E-03  0.182534993    
   1.43750000       1.00000000       0.00000000       0.00000000       0.00000000    
   1.56250000       0.00000000       0.00000000       0.00000000       0.00000000    
   1.56250000       2.50000004E-02  0.180601612      -2.06152140E-03  0.180613384    
   1.56250000       7.50000030E-02  0.464092463      -5.41963708E-03  0.464124113    
   1.56250000      0.125000000      0.685620904      -7.21806334E-03  0.685658872    
   1.56250000      0.175000012      0.848189592      -7.68489158E-03  0.848224401    
   1.56250000      0.224999994      0.956771553      -7.29171000E-03  0.956799328    
   1.56250000      0.275000006       1.02230358      -6.39387919E-03   1.02232361    
   1.56250000      0.324999988       1.05815005      -5.21829259E-03   1.05816293    
   1.56250000      0.375000000       1.07600522      -3.89815681E-03   1.07601225    
   1.56250000      0.425000012       1.08405244      -2.50747800E-03   1.08405530    
   1.56250000      0.475000024       1.08703470      -1.08616601E-03   1.08703530    
   1.56250000      0.524999976       1.08703148       3.43455235E-04   1.08703148    
   1.56250000      0.575000048       1.08404171       1.76454824E-03   1.08404315    
   1.56250000      0.625000000       1.07598376       3.15510109E-03   1.07598841    
   1.56250000      0.675000012       1.05811059       4.47556749E-03   1.05812001    
   1.56250000      0.725000024       1.02223575       5.65165095E-03   1.02225137    
   1.56250000      0.774999976      0.956662953       6.55017700E-03  0.956685364    
   1.56250000      0.825000048      0.848032236       6.94506336E-03  0.848060668    
   1.56250000      0.875000000      0.685424328       6.48226961E-03  0.685454965    
   1.56250000      0.925000012      0.463897705       4.70036454E-03  0.463921517    
   1.56250000      0.975000024      0.180497199       1.70873769E-03  0.180505291    
   1.56250000       1.00000000       0.00000000       0.00000000       0.00000000    
   1.68750000       0.00000000       0.00000000       0.00000000       0.00000000    
   1.68750000       2.50000004E-02  0.178385764      -2.05960497E-03  0.178397655    
   1.68750000       7.50000030E-02  0.457081258      -5.41081186E-03  0.457113296    
   1.68750000      0.125000000      0.674663663      -7.20389280E-03  0.674702108    
   1.68750000      0.175000012      0.834562659      -7.67269265E-03  0.834597945    
   1.68750000      0.224999994      0.941533148      -7.28417281E-03  0.941561341    
   1.68750000      0.275000006       1.00615823      -6.39049010E-03   1.00617850    
   1.68750000      0.324999988       1.04152179      -5.21792844E-03   1.04153478    
   1.68750000      0.375000000       1.05913556      -3.89992888E-03   1.05914271    
   1.68750000      0.425000012       1.06707144      -2.51099980E-03   1.06707442    
   1.68750000      0.475000024       1.07001150      -1.09112705E-03   1.07001209    
   1.68750000      0.524999976       1.07000804       3.37470614E-04   1.07000816    
   1.68750000      0.575000048       1.06706023       1.75759709E-03   1.06706166    
   1.68750000      0.625000000       1.05911314       3.14682676E-03   1.05911779    
   1.68750000      0.675000012       1.04148173       4.46517998E-03   1.04149127    
   1.68750000      0.725000024       1.00608993       5.63799310E-03   1.00610578    
   1.68750000      0.774999976      0.941424608       6.53210562E-03  0.941447258    
   1.68750000      0.825000048      0.834406078       6.92229485E-03  0.834434807    
   1.68750000      0.875000000      0.674468040       6.45745732E-03  0.674498975    
   1.68750000      0.925000012      0.456887543       4.68087476E-03  0.456911504    
   1.68750000      0.975000024      0.178282380       1.70157233E-03  0.178290486    
   1.68750000       1.00000000       0.00000000       0.00000000       0.00000000    
   1.81250000       0.00000000       0.00000000       0.00000000       0.00000000    
   1.81250000       2.50000004E-02  0.175980777      -2.05828762E-03  0.175992817    
   1.81250000       7.50000030E-02  0.449850529      -5.40333800E-03  0.449882984    
   1.81250000      0.125000000      0.663509846      -7.19110481E-03  0.663548827    
   1.81250000      0.175000012      0.820751727      -7.66141480E-03  0.820787489    
   1.81250000      0.224999994      0.926111758      -7.27723120E-03  0.926140368    
   1.81250000      0.275000006      0.989826798      -6.38771523E-03  0.989847422    
   1.81250000      0.324999988       1.02470469      -5.21810632E-03   1.02471793    
   1.81250000      0.375000000       1.04207504      -3.90198873E-03   1.04208231    
   1.81250000      0.425000012       1.04989886      -2.51437514E-03   1.04990184    
   1.81250000      0.475000024       1.05279613      -1.09577377E-03   1.05279672    
   1.81250000      0.524999976       1.05279267       3.31496063E-04   1.05279279    
   1.81250000      0.575000048       1.04988754       1.75032625E-03   1.04988897    
   1.81250000      0.625000000       1.04205287       3.13796615E-03   1.04205763    
   1.81250000      0.675000012       1.02466488       4.45420761E-03   1.02467453    
   1.81250000      0.725000024      0.989758909       5.62407263E-03  0.989774883    
   1.81250000      0.774999976      0.926004052       6.51422236E-03  0.926026940    