 TITLE= "TESTPLOT" 
 VARIABLES="x","y","fx","fy","magf" 
 ZONE T="1", I=          81 , J=          21
   0.00000000       0.00000000       1.00000000       0.00000000       1.00000000    
   0.00000000       2.50000004E-02   1.00000000       0.00000000       1.00000000    
   0.00000000       7.50000030E-02   1.00000000       0.00000000       1.00000000    
   0.00000000      0.125000000       1.00000000       0.00000000       1.00000000    
   0.00000000      0.175000012       1.00000000       0.00000000       1.00000000    
   0.00000000      0.224999994       1.00000000       0.00000000       1.00000000    
   0.00000000      0.275000006       1.00000000       0.00000000       1.00000000    
   0.00000000      0.324999988       1.00000000       0.00000000       1.00000000    
   0.00000000      0.375000000       1.00000000       0.00000000       1.00000000    
   0.00000000      0.425000012       1.00000000       0.00000000       1.00000000    
   0.00000000      0.475000024       1.00000000       0.00000000       1.00000000    
   0.00000000      0.524999976       1.00000000       0.00000000       1.00000000    
   0.00000000      0.575000048       1.00000000       0.00000000       1.00000000    
   0.00000000      0.625000000       1.00000000       0.00000000       1.00000000    
   0.00000000      0.675000012       1.00000000       0.00000000       1.00000000    
   0.00000000      0.725000024       1.00000000       0.00000000       1.00000000    
   0.00000000      0.774999976       1.00000000       0.00000000       1.00000000    
   0.00000000      0.825000048       1.00000000       0.00000000       1.00000000    
   0.00000000      0.875000000       1.00000000       0.00000000       1.00000000    
   0.00000000      0.925000012       1.00000000       0.00000000       1.00000000    
   0.00000000      0.975000024       1.00000000       0.00000000       1.00000000    
   0.00000000       1.00000000       1.00000000       0.00000000       1.00000000    
   6.25000000E-02   0.00000000      0.500000000       0.00000000      0.500000000    
   6.25000000E-02   2.50000004E-02  0.716381133      0.111083493      0.724942386    
   6.25000000E-02   7.50000030E-02  0.919971704      0.251636088      0.953765512    
   6.25000000E-02  0.125000000       1.01073050      0.274274826       1.04728353    
   6.25000000E-02  0.175000012       1.04560149      0.246667951       1.07430327    
   6.25000000E-02  0.224999994       1.05378890      0.201840401       1.07294476    
   6.25000000E-02  0.275000006       1.05049384      0.155056894       1.06187570    
   6.25000000E-02  0.324999988       1.04348874      0.112393908       1.04952419    
   6.25000000E-02  0.375000000       1.03656018       7.53047168E-02   1.03929198    
   6.25000000E-02  0.425000012       1.03141332       4.30458039E-02   1.03231120    
   6.25000000E-02  0.475000024       1.02873158       1.39179779E-02   1.02882576    
   6.25000000E-02  0.524999976       1.02873755      -1.41396187E-02   1.02883470    
   6.25000000E-02  0.575000048       1.03143132      -4.32773121E-02   1.03233886    
   6.25000000E-02  0.625000000       1.03659129      -7.55563527E-02   1.03934133    
   6.25000000E-02  0.675000012       1.04353404     -0.112676054       1.04959953    
   6.25000000E-02  0.725000024       1.05055583     -0.155381396       1.06198442    
   6.25000000E-02  0.774999976       1.05386758     -0.202220291       1.07309365    
   6.25000000E-02  0.825000048       1.04569483     -0.247114897       1.07449687    
   6.25000000E-02  0.875000000       1.01083255     -0.274795651       1.04751849    
   6.25000000E-02  0.925000012      0.920069873     -0.252220631      0.954014599    
   6.25000000E-02  0.975000024      0.716450334     -0.111388728      0.725057602    
   6.25000000E-02   1.00000000      0.500000000       0.00000000      0.500000000    
  0.187500000       0.00000000       0.00000000       0.00000000       0.00000000    
  0.187500000       2.50000004E-02  0.338618159       3.52730341E-02  0.340450346    
  0.187500000       7.50000030E-02  0.729763985      0.112049595      0.738316059    
  0.187500000      0.125000000      0.947876513      0.180421799      0.964894772    
  0.187500000      0.175000012       1.06122041      0.216720045       1.08312345    
  0.187500000      0.224999994       1.11299539      0.221419781       1.13480628    
  0.187500000      0.275000006       1.13064051      0.202266544       1.14859033    
  0.187500000      0.324999988       1.13128304      0.167558596       1.14362466    
  0.187500000      0.375000000       1.12529504      0.123842314       1.13208914    
  0.187500000      0.425000012       1.11869109       7.55029470E-02   1.12123609    
  0.187500000      0.475000024       1.11470127       2.51383148E-02   1.11498475    
  0.187500000      0.524999976       1.11471927      -2.57782377E-02   1.11501729    
  0.187500000      0.575000048       1.11874509      -7.61524141E-02   1.12133396    
  0.187500000      0.625000000       1.12538457     -0.124509916       1.13225138    
  0.187500000      0.675000012       1.13140702     -0.168250203       1.14384878    
  0.187500000      0.725000024       1.13079667     -0.202983454       1.14887047    
  0.187500000      0.774999976       1.11317754     -0.222158194       1.13512933    
  0.187500000      0.825000048       1.06141794     -0.217470467       1.08346736    
  0.187500000      0.875000000      0.948072672     -0.181168944      0.965227425    
  0.187500000      0.925000012      0.729934931     -0.112766773      0.738594174    
  0.187500000      0.975000024      0.338727593      -3.56197357E-02  0.340595305    
  0.187500000       1.00000000       0.00000000       0.00000000       0.00000000    
  0.312500000       0.00000000       0.00000000       0.00000000       0.00000000    
  0.312500000       2.50000004E-02  0.212848634       1.02653066E-02  0.213096023    
  0.312500000       7.50000030E-02  0.558434665       4.24220487E-02  0.560043693    
  0.312500000      0.125000000      0.813185096       8.61911029E-02  0.817740142    
  0.312500000      0.175000012      0.987252653      0.123099148      0.994897604    
  0.312500000      0.224999994       1.09791374      0.143766344       1.10728645    
  0.312500000      0.275000006       1.16287184      0.145809427       1.17197752    
  0.312500000      0.324999988       1.19742262      0.130920306       1.20455849    
  0.312500000      0.375000000       1.21352768      0.102639697       1.21786058    
  0.312500000      0.425000012       1.21975958       6.50111660E-02   1.22149086    
  0.312500000      0.475000024       1.22156966       2.19538361E-02   1.22176695    
  0.312500000      0.524999976       1.22159374      -2.28741448E-02   1.22180784    
  0.312500000      0.575000048       1.21982908      -6.59306869E-02   1.22160947    
  0.312500000      0.625000000       1.21363783     -0.103555635       1.21804774    
  0.312500000      0.675000012       1.19756579     -0.131828263       1.20479977    
  0.312500000      0.725000024       1.16303587     -0.146701932       1.17225158    
  0.312500000      0.774999976       1.09808421     -0.144632876       1.10756838    
  0.312500000      0.825000048      0.987412870     -0.123928845      0.995159507    
  0.312500000      0.875000000      0.813319325      -8.69748965E-02  0.817956567    
  0.312500000      0.925000012      0.558532119      -4.31475192E-02  0.560196280    
  0.312500000      0.975000024      0.212903082      -1.06113013E-02  0.213167354    
  0.312500000       1.00000000       0.00000000       0.00000000       0.00000000    
  0.437500000       0.00000000       0.00000000       0.00000000       0.00000000    
  0.437500000       2.50000004E-02  0.168332070       2.77206372E-03  0.168354884    
  0.437500000       7.50000030E-02  0.466684699       1.52159128E-02  0.466932684    
  0.437500000      0.125000000      0.715137303       3.70992124E-02  0.716098964    
  0.437500000      0.175000012      0.910244226       5.99563718E-02  0.912216723    
  0.437500000      0.224999994       1.05521059       7.69207925E-02   1.05801046    
  0.437500000      0.275000006       1.15724087       8.39612633E-02   1.16028273    
  0.437500000      0.324999988       1.22511911       7.97760338E-02   1.22771370    
  0.437500000      0.375000000       1.26742435       6.51719272E-02   1.26909888    
  0.437500000      0.425000012       1.29135203       4.23572958E-02   1.29204643    
  0.437500000      0.475000024       1.30200744       1.43548194E-02   1.30208659    
  0.437500000      0.524999976       1.30202448      -1.54123232E-02   1.30211568    
  0.437500000      0.575000048       1.29139948      -4.34036702E-02   1.29212868    
  0.437500000      0.625000000       1.26749432      -6.61967993E-02   1.26922178    
  0.437500000      0.675000012       1.22520065      -8.07688534E-02   1.22785997    
  0.437500000      0.725000024       1.15732098      -8.49113092E-02   1.16043174    
  0.437500000      0.774999976       1.05527663      -7.78186470E-02   1.05814195    
  0.437500000      0.825000048      0.910285652      -6.07964620E-02  0.912313640    
  0.437500000      0.875000000      0.715152323      -3.78809907E-02  0.716154873    
  0.437500000      0.925000012      0.466684759      -1.59355644E-02  0.466956735    
  0.437500000      0.975000024      0.168339744      -3.11518507E-03  0.168368563    
  0.437500000       1.00000000       0.00000000       0.00000000       0.00000000    
  0.562500000       0.00000000       0.00000000       0.00000000       0.00000000    
  0.562500000       2.50000004E-02  0.149403274       3.09873612E-05  0.149403274    
  0.562500000       7.50000030E-02  0.420386642       3.77307739E-03  0.420403570    
  0.562500000      0.125000000      0.657204866       1.33158062E-02  0.657339752    
  0.562500000      0.175000012      0.855933666       2.50989683E-02  0.856301606    
  0.562500000      0.224999994       1.01577365       3.53808291E-02   1.01638961    
  0.562500000      0.275000006       1.13874006       4.12653908E-02   1.13948750    
  0.562500000      0.324999988       1.22877169       4.11413088E-02   1.22946024    
  0.562500000      0.375000000       1.29063678       3.47510464E-02   1.29110456    
  0.562500000      0.425000012       1.32889783       2.30141897E-02   1.32909703    
  0.562500000      0.475000024       1.34707785       7.72214402E-03   1.34710002    
  0.562500000      0.524999976       1.34707880      -8.80872458E-03   1.34710765    
  0.562500000      0.575000048       1.32889771      -2.40866393E-02   1.32911599    
  0.562500000      0.625000000       1.29062819      -3.57942954E-02   1.29112446    
  0.562500000      0.675000012       1.22874665      -4.21422012E-02   1.22946906    
  0.562500000      0.725000024       1.13869143      -4.22143489E-02   1.13947368    
  0.562500000      0.774999976       1.01569760      -3.62715088E-02   1.01634502    
  0.562500000      0.825000048      0.855832338      -2.59295050E-02  0.856225073    
  0.562500000      0.875000000      0.657092631      -1.40886009E-02  0.657243609    
  0.562500000      0.925000012      0.420293748      -4.48714383E-03  0.420317680    
  0.562500000      0.975000024      0.149372518      -3.72572511E-04  0.149372980    
  0.562500000       1.00000000       0.00000000       0.00000000       0.00000000    
  0.687500000       0.00000000       0.00000000       0.00000000       0.00000000    
  0.687500000       2.50000004E-02  0.140228868      -1.12953992E-03  0.140233412    
  0.687500000       7.50000030E-02  0.396089315      -1.38744980E-03  0.396091729    
  0.687500000      0.125000000      0.623924315       1.83511188E-03  0.623926997    
  0.687500000      0.175000012      0.821008205       7.07823969E-03  0.821038723    
  0.687500000      0.224999994      0.985913634       1.24590695E-02  0.985992372    
  0.687500000      0.275000006       1.11870527       1.62829068E-02   1.11882377    
  0.687500000      0.324999988       1.22074628       1.73820592E-02   1.22087002    
  0.687500000      0.375000000       1.29421628       1.53016504E-02   1.29430676    
  0.687500000      0.425000012       1.34149694       1.03182467E-02   1.34153664    
  0.687500000      0.475000024       1.36457062       3.32493940E-03   1.36457467    
  0.687500000      0.524999976       1.36455297      -4.37970366E-03   1.36456001    
  0.687500000      0.575000048       1.34143996      -1.13573838E-02   1.34148800    
  0.687500000      0.625000000       1.29411840      -1.63115263E-02   1.29422116    
  0.687500000      0.675000012       1.22060525      -1.83513798E-02   1.22074318    
  0.687500000      0.725000024       1.11852193      -1.72026530E-02   1.11865425    
  0.687500000      0.774999976      0.985695362      -1.33250123E-02  0.985785425    
  0.687500000      0.825000048      0.820770621      -7.89051130E-03  0.820808530    
  0.687500000      0.875000000      0.623696923      -2.59706192E-03  0.623702347    
  0.687500000      0.925000012      0.395915926       6.77664648E-04  0.395916522    
  0.687500000      0.975000024      0.140165001       7.88768695E-04  0.140167221    
  0.687500000       1.00000000       0.00000000       0.00000000       0.00000000    
  0.812500000       0.00000000       0.00000000       0.00000000       0.00000000    
  0.812500000       2.50000004E-02  0.135245800      -1.64568832E-03  0.135255814    
  0.812500000       7.50000030E-02  0.382247627      -3.76214460E-03  0.382266134    
  0.812500000      0.125000000      0.603764296      -3.64936935E-03  0.603775322    
  0.812500000      0.175000012      0.797980428      -1.87328644E-03  0.797982633    
  0.812500000      0.224999994      0.963608265       6.27647736E-04  0.963608503    
  0.812500000      0.275000006       1.10008574       2.92363134E-03   1.10008967    
  0.812500000      0.324999988       1.20758855       4.28574905E-03   1.20759618    
  0.812500000      0.375000000       1.28685880       4.32327017E-03   1.28686607    
  0.812500000      0.425000012       1.33890152       3.03895446E-03   1.33890498    
  0.812500000      0.475000024       1.36463237       7.96713284E-04   1.36463261    
  0.812500000      0.524999976       1.36459672      -1.78955321E-03   1.36459792    
  0.812500000      0.575000048       1.33879161      -4.01844922E-03   1.33879757    
  0.812500000      0.625000000       1.28667903      -5.27787674E-03   1.28668988    
  0.812500000      0.675000012       1.20734286      -5.20594697E-03   1.20735407    
  0.812500000      0.725000024       1.09978342      -3.80227133E-03   1.09978998    
  0.812500000      0.774999976      0.963266969      -1.46136608E-03  0.963268101    
  0.812500000      0.825000048      0.797627807       1.08342979E-03  0.797628582    
  0.812500000      0.875000000      0.603441238       2.90058460E-03  0.603448212    
  0.812500000      0.925000012      0.382008255       3.05817043E-03  0.382020503    
  0.812500000      0.975000024      0.135154828       1.30618678E-03  0.135161132    
  0.812500000       1.00000000       0.00000000       0.00000000       0.00000000    
  0.937500000       0.00000000       0.00000000       0.00000000       0.00000000    
  0.937500000       2.50000004E-02  0.132121354      -1.87357236E-03  0.132134646    
  0.937500000       7.50000030E-02  0.373313814      -4.83845454E-03  0.373345166    
  0.937500000      0.125000000      0.590159416      -6.20126072E-03  0.590192020    
  0.937500000      0.175000012      0.781372309      -6.14893250E-03  0.781396508    
  0.937500000      0.224999994      0.945881486      -5.16820047E-03  0.945895612    
  0.937500000      0.275000006       1.08296013      -3.77356075E-03   1.08296669    
  0.937500000      0.324999988       1.19228005      -2.41134968E-03   1.19228244    
  0.937500000      0.375000000       1.27386892      -1.37819722E-03   1.27386963    
  0.937500000      0.425000012       1.32797861      -7.77040608E-04   1.32797885    
  0.937500000      0.475000024       1.35490727      -5.23529481E-04   1.35490739    
  0.937500000      0.524999976       1.35485601      -3.98953387E-04   1.35485601    
  0.937500000      0.575000048       1.32782626      -1.35652794E-04   1.32782626    
  0.937500000      0.625000000       1.27362239       4.84358781E-04   1.27362251    
  0.937500000      0.675000012       1.19194937       1.54412817E-03   1.19195044    
  0.937500000      0.725000024       1.08256197       2.93834950E-03   1.08256590    
  0.937500000      0.774999976      0.945442796       4.36722860E-03  0.945452869    
  0.937500000      0.825000048      0.780929983       5.38191153E-03  0.780948520    
  0.937500000      0.875000000      0.589762211       5.46624791E-03  0.589787543    
  0.937500000      0.925000012      0.373024136       4.14034072E-03  0.373047084    
  0.937500000      0.975000024      0.132010698       1.53530552E-03  0.132019624    
  0.937500000       1.00000000       0.00000000       0.00000000       0.00000000    
   1.06250000       0.00000000       0.00000000       0.00000000       0.00000000    
   1.06250000       2.50000004E-02  0.129803181      -1.96905574E-03  0.129818112    
   1.06250000       7.50000030E-02  0.366616905      -5.30436495E-03  0.366655260    
   1.06250000      0.125000000      0.579674840      -7.33520277E-03  0.579721212    
   1.06250000      0.175000012      0.767976105      -8.09207559E-03  0.768018782    
   1.06250000      0.224999994      0.930607259      -7.85688311E-03  0.930640459    
   1.06250000      0.275000006       1.06682384      -6.93721464E-03   1.06684637    
   1.06250000      0.324999988       1.17610192      -5.62263513E-03   1.17611539    
   1.06250000      0.375000000       1.25814056      -4.14199615E-03   1.25814736    
   1.06250000      0.425000012       1.31281972      -2.63663311E-03   1.31282234    
   1.06250000      0.475000024       1.34012032      -1.15950382E-03   1.34012079    
   1.06250000      0.524999976       1.34005821       3.01982713E-04   1.34005821    
   1.06250000      0.575000048       1.31263685       1.78534025E-03   1.31263804    
   1.06250000      0.625000000       1.25784433       3.30425799E-03   1.25784874    
   1.06250000      0.675000012       1.17570734       4.80477838E-03   1.17571712    
   1.06250000      0.725000024       1.06635463       6.14241511E-03   1.06637228    
   1.06250000      0.774999976      0.930096865       7.08661601E-03  0.930123866    
   1.06250000      0.825000048      0.767468333       7.34625198E-03  0.767503440    
   1.06250000      0.875000000      0.579224944       6.61208387E-03  0.579262674    
   1.06250000      0.925000012      0.366292715       4.61122720E-03  0.366321743    
   1.06250000      0.975000024      0.129680812       1.63206155E-03  0.129691079    
   1.06250000       1.00000000       0.00000000       0.00000000       0.00000000    
   1.18750000       0.00000000       0.00000000       0.00000000       0.00000000    
   1.18750000       2.50000004E-02  0.127816945      -2.00593565E-03  0.127832681    
   1.18750000       7.50000030E-02  0.360890925      -5.49196824E-03  0.360932708    
   1.18750000      0.125000000      0.570599437      -7.80699961E-03  0.570652843    
   1.18750000      0.175000012      0.756089270      -8.92153848E-03  0.756141901    
   1.18750000      0.224999994      0.916544199      -9.02851857E-03  0.916588664    
   1.18750000      0.275000006       1.05124092      -8.33949633E-03   1.05127394    
   1.18750000      0.324999988       1.15958893      -7.06506753E-03   1.15961051    
   1.18750000      0.375000000       1.24115181      -5.39442804E-03   1.24116349    
   1.18750000      0.425000012       1.29564071      -3.48128122E-03   1.29564536    
   1.18750000      0.475000024       1.32288718      -1.44113204E-03   1.32288790    
   1.18750000      0.524999976       1.32281756       6.39085425E-04   1.32281768    
   1.18750000      0.575000048       1.29543591       2.68370076E-03   1.29543865    
   1.18750000      0.625000000       1.24082053       4.60587302E-03   1.24082911    
   1.18750000      0.675000012       1.15914989       6.28941227E-03   1.15916693    
   1.18750000      0.725000024       1.05072296       7.57921394E-03   1.05075026    
   1.18750000      0.774999976      0.915985584       8.28422420E-03  0.916023016    
   1.18750000      0.825000048      0.755538106       8.19277856E-03  0.755582511    
   1.18750000      0.875000000      0.570115745       7.09352177E-03  0.570159853    
   1.18750000      0.925000012      0.360545158       4.80296044E-03  0.360577136    
   1.18750000      0.975000024      0.127687067       1.66981376E-03  0.127697989    
   1.18750000       1.00000000       0.00000000       0.00000000       0.00000000    
   1.31250000       0.00000000       0.00000000       0.00000000       0.00000000    
   1.31250000       2.50000004E-02  0.125955284      -2.01799395E-03  0.125971451    
   1.31250000       7.50000030E-02  0.355556399      -5.55843674E-03  0.355599821    
   1.31250000      0.125000000      0.562119007      -7.98368827E-03  0.562175691    
   1.31250000      0.175000012      0.744865537      -9.24433023E-03  0.744922876    
   1.31250000      0.224999994      0.903037310      -9.49730538E-03  0.903087199    
   1.31250000      0.275000006       1.03593612      -8.91197473E-03   1.03597438    
   1.31250000      0.324999988       1.14295840      -7.66181201E-03   1.14298403    
   1.31250000      0.375000000       1.22361898      -5.91613865E-03   1.22363329    
   1.31250000      0.425000012       1.27755928      -3.83197190E-03   1.27756500    
   1.31250000      0.475000024       1.30454862      -1.55140727E-03   1.30454957    
   1.31250000      0.524999976       1.30447435       7.93503132E-04   1.30447459    
   1.31250000      0.575000048       1.27734017       3.07611516E-03   1.27734387    
   1.31250000      0.625000000       1.22326589       5.16590849E-03   1.22327673    
   1.31250000      0.675000012       1.14249277       6.91904593E-03   1.14251375    
   1.31250000      0.725000024       1.03538942       8.17772932E-03   1.03542173    
   1.31250000      0.774999976      0.902450323       8.77289101E-03  0.902492940    
   1.31250000      0.825000048      0.744289756       8.52969848E-03  0.744338632    
   1.31250000      0.875000000      0.561616540       7.27918930E-03  0.561663747    
   1.31250000      0.925000012      0.355198503       4.87403944E-03  0.355231941    
   1.31250000      0.975000024      0.125820532       1.68315240E-03  0.125831783    
   1.31250000       1.00000000       0.00000000       0.00000000       0.00000000    
   1.43750000       0.00000000       0.00000000       0.00000000       0.00000000    
   1.43750000       2.50000004E-02  0.124131039      -2.02088570E-03  0.124147490    
   1.43750000       7.50000030E-02  0.350360632      -5.57734678E-03  0.350405008    
   1.43750000      0.125000000      0.553866208      -8.03882722E-03  0.553924501    
   1.43750000      0.175000012      0.733909726      -9.35132988E-03  0.733969331    
   1.43750000      0.224999994      0.889766812      -9.66012385E-03  0.889819264    
   1.43750000      0.275000006       1.02076101      -9.11755022E-03   1.02080178    
   1.43750000      0.324999988       1.12629461      -7.88087212E-03   1.12632215    
   1.43750000      0.375000000       1.20586967      -6.10957341E-03   1.20588517    
   1.43750000      0.425000012       1.25910568      -3.96059826E-03   1.25911200    
   1.43750000      0.475000024       1.28574884      -1.58690801E-03   1.28574979    
   1.43750000      0.524999976       1.28567243       8.61387583E-04   1.28567266    
   1.43750000      0.575000048       1.25887966       3.23614478E-03   1.25888383    
   1.43750000      0.625000000       1.20550537       5.38786640E-03   1.20551741    
   1.43750000      0.675000012       1.12581575       7.16242893E-03   1.12583852    
   1.43750000      0.725000024       1.02020049       8.40264373E-03   1.02023506    
   1.43750000      0.774999976      0.889166534       8.94970261E-03  0.889211595    
   1.43750000      0.825000048      0.733323574       8.64575896E-03  0.733374536    
   1.43750000      0.875000000      0.553356826       7.33882748E-03  0.553405464    
   1.43750000      0.925000012      0.349999458       4.89431806E-03  0.350033671    
   1.43750000      0.975000024      0.123996153       1.68627128E-03  0.124007620    
   1.43750000       1.00000000       0.00000000       0.00000000       0.00000000    
   1.56250000       0.00000000       0.00000000       0.00000000       0.00000000    
   1.56250000       2.50000004E-02  0.122312449      -2.02042074E-03  0.122329138    
   1.56250000       7.50000030E-02  0.345202565      -5.57847600E-03  0.345247626    
   1.56250000      0.125000000      0.545686364      -8.04760028E-03  0.545745671    
   1.56250000      0.175000012      0.723048568      -9.37452912E-03  0.723109365    
   1.56250000      0.224999994      0.876586437      -9.70097445E-03  0.876640081    
   1.56250000      0.275000006       1.00564170      -9.17356927E-03   1.00568354    
   1.56250000      0.324999988       1.10962594      -7.94379041E-03   1.10965431    
   1.56250000      0.375000000       1.18804455      -6.16603531E-03   1.18806052    
   1.56250000      0.425000012       1.24051428      -3.99683835E-03   1.24052072    
   1.56250000      0.475000024       1.26677561      -1.59286417E-03   1.26677656    
   1.56250000      0.524999976       1.26669824       8.89550953E-04   1.26669860    
   1.56250000      0.575000048       1.24028552       3.29382392E-03   1.24028993    
   1.56250000      0.625000000       1.18767595       5.46347303E-03   1.18768847    
   1.56250000      0.675000012       1.10914207       7.24191498E-03   1.10916567    
   1.56250000      0.725000024       1.00507641       8.47233832E-03   1.00511205    
   1.56250000      0.774999976      0.875983238       9.00037587E-03  0.876029491    
   1.56250000      0.825000048      0.722461224       8.67511146E-03  0.722513318    
   1.56250000      0.875000000      0.545177341       7.35088019E-03  0.545226872    
   1.56250000      0.925000012      0.344842792       4.89665149E-03  0.344877541    
   1.56250000      0.975000024      0.122178972       1.68598176E-03  0.122190602    
   1.56250000       1.00000000       0.00000000       0.00000000       0.00000000    
   1.68750000       0.00000000       0.00000000       0.00000000       0.00000000    
   1.68750000       2.50000004E-02  0.120490253      -2.01977184E-03  0.120507181    
   1.68750000       7.50000030E-02  0.340046734      -5.57575095E-03  0.340092450    
   1.68750000      0.125000000      0.537520766      -8.04353505E-03  0.537580967    
   1.68750000      0.175000012      0.712211967      -9.37169138E-03  0.712273657    
   1.68750000      0.224999994      0.863433719      -9.70176421E-03  0.863488197    
   1.68750000      0.275000006      0.990542173      -9.17866174E-03  0.990584671    
   1.68750000      0.324999988       1.09295964      -7.95136020E-03   1.09298849    
   1.68750000      0.375000000       1.17019963      -6.17354549E-03   1.17021596    
   1.68750000      0.425000012       1.22188187      -4.00057202E-03   1.22188842    
   1.68750000      0.475000024       1.24774945      -1.58956088E-03   1.24775040    
   1.68750000      0.524999976       1.24767208       9.00425075E-04   1.24767244    
   1.68750000      0.575000048       1.22165370       3.31073604E-03   1.22165823    
   1.68750000      0.625000000       1.16983151       5.48315328E-03   1.16984439    
   1.68750000      0.675000012       1.09247732       7.25971581E-03   1.09250140    
   1.68750000      0.725000024      0.989979506       8.48502666E-03  0.990015864    
   1.68750000      0.774999976      0.862835169       9.00656916E-03  0.862882197    
   1.68750000      0.825000048      0.711629391       8.67571495E-03  0.711682260    
   1.68750000      0.875000000      0.537016451       7.34856678E-03  0.537066758    
   1.68750000      0.925000012      0.339690506       4.89431433E-03  0.339725763    
   1.68750000      0.975000024      0.120358780       1.68525497E-03  0.120370582    
   1.68750000       1.00000000       0.00000000       0.00000000       0.00000000    
   1.81250000       0.00000000       0.00000000       0.00000000       0.00000000    
   1.81250000       2.50000004E-02  0.118663281      -2.01908383E-03  0.118680455    
   1.81250000       7.50000030E-02  0.334883392      -5.57277910E-03  0.334929764    
   1.81250000      0.125000000      0.529350758      -8.03745352E-03  0.529411793    
   1.81250000      0.175000012      0.701376677      -9.36335325E-03  0.701439142    
   1.81250000      0.224999994      0.850287259      -9.69229825E-03  0.850342512    
   1.81250000      0.275000006      0.975449800      -9.16939043E-03  0.975492895    
   1.81250000      0.324999988       1.07629848      -7.94349518E-03   1.07632780    
   1.81250000      0.375000000       1.15235507      -6.16681669E-03   1.15237153    
   1.81250000      0.425000012       1.20324540      -3.99499107E-03   1.20325208    
   1.81250000      0.475000024       1.22871614      -1.58541556E-03   1.22871721    
   1.81250000      0.524999976       1.22863936       9.03592038E-04   1.22863972    
   1.81250000      0.575000048       1.20301926       3.31268157E-03   1.20302379    
   1.81250000      0.625000000       1.15199101       5.48291299E-03   1.15200400    
   1.81250000      0.675000012       1.07582235       7.25698378E-03   1.07584679    
   1.81250000      0.725000024      0.974894702       8.47975351E-03  0.974931538    
   1.81250000      0.774999976      0.849697232       8.99933465E-03  0.849744916    