 TITLE= "TESTPLOT" 
 VARIABLES="x","y","fx","fy","magf" 
 ZONE T="1", I=          81 , J=          21
   0.00000000       0.00000000       1.00000000       0.00000000       1.00000000    
   0.00000000       2.50000004E-02   1.00000000       0.00000000       1.00000000    
   0.00000000       7.50000030E-02   1.00000000       0.00000000       1.00000000    
   0.00000000      0.125000000       1.00000000       0.00000000       1.00000000    
   0.00000000      0.175000012       1.00000000       0.00000000       1.00000000    
   0.00000000      0.224999994       1.00000000       0.00000000       1.00000000    
   0.00000000      0.275000006       1.00000000       0.00000000       1.00000000    
   0.00000000      0.324999988       1.00000000       0.00000000       1.00000000    
   0.00000000      0.375000000       1.00000000       0.00000000       1.00000000    
   0.00000000      0.425000012       1.00000000       0.00000000       1.00000000    
   0.00000000      0.475000024       1.00000000       0.00000000       1.00000000    
   0.00000000      0.524999976       1.00000000       0.00000000       1.00000000    
   0.00000000      0.575000048       1.00000000       0.00000000       1.00000000    
   0.00000000      0.625000000       1.00000000       0.00000000       1.00000000    
   0.00000000      0.675000012       1.00000000       0.00000000       1.00000000    
   0.00000000      0.725000024       1.00000000       0.00000000       1.00000000    
   0.00000000      0.774999976       1.00000000       0.00000000       1.00000000    
   0.00000000      0.825000048       1.00000000       0.00000000       1.00000000    
   0.00000000      0.875000000       1.00000000       0.00000000       1.00000000    
   0.00000000      0.925000012       1.00000000       0.00000000       1.00000000    
   0.00000000      0.975000024       1.00000000       0.00000000       1.00000000    
   0.00000000       1.00000000       1.00000000       0.00000000       1.00000000    
   6.25000000E-02   0.00000000      0.500000000       0.00000000      0.500000000    
   6.25000000E-02   2.50000004E-02  0.716381669      0.111083865      0.724942982    
   6.25000000E-02   7.50000030E-02  0.919972658      0.251637071      0.953766704    
   6.25000000E-02  0.125000000       1.01073074      0.274276495       1.04728425    
   6.25000000E-02  0.175000012       1.04560161      0.246669918       1.07430387    
   6.25000000E-02  0.224999994       1.05378914      0.201842502       1.07294548    
   6.25000000E-02  0.275000006       1.05049396      0.155059606       1.06187618    
   6.25000000E-02  0.324999988       1.04348922      0.112397388       1.04952502    
   6.25000000E-02  0.375000000       1.03656101       7.53083229E-02   1.03929305    
   6.25000000E-02  0.425000012       1.03141475       4.30490039E-02   1.03231275    
   6.25000000E-02  0.475000024       1.02873290       1.39211630E-02   1.02882707    
   6.25000000E-02  0.524999976       1.02873898      -1.41367186E-02   1.02883601    
   6.25000000E-02  0.575000048       1.03143239      -4.32747342E-02   1.03233981    
   6.25000000E-02  0.625000000       1.03659177      -7.55538046E-02   1.03934157    
   6.25000000E-02  0.675000012       1.04353487     -0.112674057       1.04960012    
   6.25000000E-02  0.725000024       1.05055666     -0.155380368       1.06198514    
   6.25000000E-02  0.774999976       1.05386817     -0.202219784       1.07309413    
   6.25000000E-02  0.825000048       1.04569507     -0.247114599       1.07449698    
   6.25000000E-02  0.875000000       1.01083302     -0.274796009       1.04751909    
   6.25000000E-02  0.925000012      0.920070052     -0.252221197      0.954014897    
   6.25000000E-02  0.975000024      0.716450214     -0.111388914      0.725057483    
   6.25000000E-02   1.00000000      0.500000000       0.00000000      0.500000000    
  0.187500000       0.00000000       0.00000000       0.00000000       0.00000000    
  0.187500000       2.50000004E-02  0.338619530       3.52735370E-02  0.340451777    
  0.187500000       7.50000030E-02  0.729766726      0.112050973      0.738318980    
  0.187500000      0.125000000      0.947878361      0.180423796      0.964896917    
  0.187500000      0.175000012       1.06122160      0.216722578       1.08312511    
  0.187500000      0.224999994       1.11299658      0.221422940       1.13480818    
  0.187500000      0.275000006       1.13064170      0.202269793       1.14859200    
  0.187500000      0.324999988       1.13128424      0.167561889       1.14362621    
  0.187500000      0.375000000       1.12529635      0.123845905       1.13209081    
  0.187500000      0.425000012       1.11869335       7.55065233E-02   1.12123859    
  0.187500000      0.475000024       1.11470413       2.51414031E-02   1.11498761    
  0.187500000      0.524999976       1.11472225      -2.57759523E-02   1.11502016    
  0.187500000      0.575000048       1.11874723      -7.61508271E-02   1.12133598    
  0.187500000      0.625000000       1.12538588     -0.124508493       1.13225245    
  0.187500000      0.675000012       1.13140893     -0.168248743       1.14385045    
  0.187500000      0.725000024       1.13079834     -0.202982426       1.14887190    
  0.187500000      0.774999976       1.11317885     -0.222157717       1.13513041    
  0.187500000      0.825000048       1.06141925     -0.217470229       1.08346856    
  0.187500000      0.875000000      0.948074818     -0.181168661      0.965229452    
  0.187500000      0.925000012      0.729936421     -0.112766758      0.738595665    
  0.187500000      0.975000024      0.338727385      -3.56198736E-02  0.340595096    
  0.187500000       1.00000000       0.00000000       0.00000000       0.00000000    
  0.312500000       0.00000000       0.00000000       0.00000000       0.00000000    
  0.312500000       2.50000004E-02  0.212851316       1.02655981E-02  0.213098720    
  0.312500000       7.50000030E-02  0.558439374       4.24229428E-02  0.560048401    
  0.312500000      0.125000000      0.813189387       8.61925930E-02  0.817744553    
  0.312500000      0.175000012      0.987255692      0.123101279      0.994900882    
  0.312500000      0.224999994       1.09791613      0.143769458       1.10728920    
  0.312500000      0.275000006       1.16287446      0.145813003       1.17198062    
  0.312500000      0.324999988       1.19742501      0.130923137       1.20456111    
  0.312500000      0.375000000       1.21352959      0.102641895       1.21786261    
  0.312500000      0.425000012       1.21976161       6.50130361E-02   1.22149301    
  0.312500000      0.475000024       1.22157264       2.19552424E-02   1.22176993    
  0.312500000      0.524999976       1.22159648      -2.28726137E-02   1.22181058    
  0.312500000      0.575000048       1.21983123      -6.59288764E-02   1.22161162    
  0.312500000      0.625000000       1.21363950     -0.103554137       1.21804941    
  0.312500000      0.675000012       1.19756770     -0.131826699       1.20480156    
  0.312500000      0.725000024       1.16303754     -0.146700114       1.17225313    
  0.312500000      0.774999976       1.09808540     -0.144631341       1.10756934    
  0.312500000      0.825000048      0.987414479     -0.123927549      0.995160997    
  0.312500000      0.875000000      0.813321888      -8.69735032E-02  0.817958951    
  0.312500000      0.925000012      0.558534145      -4.31460366E-02  0.560198128    
  0.312500000      0.975000024      0.212904096      -1.06105842E-02  0.213168338    
  0.312500000       1.00000000       0.00000000       0.00000000       0.00000000    
  0.437500000       0.00000000       0.00000000       0.00000000       0.00000000    
  0.437500000       2.50000004E-02  0.168336332       2.77156662E-03  0.168359146    
  0.437500000       7.50000030E-02  0.466689914       1.52154975E-02  0.466937870    
  0.437500000      0.125000000      0.715142429       3.70995328E-02  0.716104090    
  0.437500000      0.175000012      0.910248578       5.99571913E-02  0.912221134    
  0.437500000      0.224999994       1.05521369       7.69223869E-02   1.05801368    
  0.437500000      0.275000006       1.15724397       8.39632899E-02   1.16028595    
  0.437500000      0.324999988       1.22512221       7.97778666E-02   1.22771692    
  0.437500000      0.375000000       1.26742721       6.51731193E-02   1.26910174    
  0.437500000      0.425000012       1.29135442       4.23582420E-02   1.29204893    
  0.437500000      0.475000024       1.30201030       1.43563272E-02   1.30208945    
  0.437500000      0.524999976       1.30202699      -1.54105360E-02   1.30211818    
  0.437500000      0.575000048       1.29140103      -4.34021913E-02   1.29213011    
  0.437500000      0.625000000       1.26749599      -6.61958903E-02   1.26922333    
  0.437500000      0.675000012       1.22520256      -8.07680488E-02   1.22786188    
  0.437500000      0.725000024       1.15732265      -8.49103630E-02   1.16043329    
  0.437500000      0.774999976       1.05527782      -7.78181851E-02   1.05814326    
  0.437500000      0.825000048      0.910286903      -6.07961565E-02  0.912314832    
  0.437500000      0.875000000      0.715154350      -3.78807187E-02  0.716156900    
  0.437500000      0.925000012      0.466686368      -1.59358513E-02  0.466958344    
  0.437500000      0.975000024      0.168340862      -3.11548472E-03  0.168369696    
  0.437500000       1.00000000       0.00000000       0.00000000       0.00000000    
  0.562500000       0.00000000       0.00000000       0.00000000       0.00000000    
  0.562500000       2.50000004E-02  0.149406999       3.11701551E-05  0.149406999    
  0.562500000       7.50000030E-02  0.420391828       3.77360056E-03  0.420408785    
  0.562500000      0.125000000      0.657210469       1.33167915E-02  0.657345355    
  0.562500000      0.175000012      0.855939031       2.51001194E-02  0.856306970    
  0.562500000      0.224999994       1.01577830       3.53819989E-02   1.01639438    
  0.562500000      0.275000006       1.13874388       4.12665270E-02   1.13949132    
  0.562500000      0.324999988       1.22877514       4.11424674E-02   1.22946370    
  0.562500000      0.375000000       1.29064035       3.47527601E-02   1.29110813    
  0.562500000      0.425000012       1.32890117       2.30158493E-02   1.32910049    
  0.562500000      0.475000024       1.34708083       7.72320339E-03   1.34710300    
  0.562500000      0.524999976       1.34708238      -8.80799256E-03   1.34711123    
  0.562500000      0.575000048       1.32890046      -2.40860619E-02   1.32911873    
  0.562500000      0.625000000       1.29063058      -3.57940570E-02   1.29112685    
  0.562500000      0.675000012       1.22874880      -4.21419665E-02   1.22947121    
  0.562500000      0.725000024       1.13869381      -4.22140732E-02   1.13947606    
  0.562500000      0.774999976       1.01569963      -3.62712406E-02   1.01634705    
  0.562500000      0.825000048      0.855834782      -2.59286985E-02  0.856227458    
  0.562500000      0.875000000      0.657095492      -1.40875122E-02  0.657246470    
  0.562500000      0.925000012      0.420296103      -4.48639179E-03  0.420320034    
  0.562500000      0.975000024      0.149372682      -3.72361654E-04  0.149373144    
  0.562500000       1.00000000       0.00000000       0.00000000       0.00000000    
  0.687500000       0.00000000       0.00000000       0.00000000       0.00000000    
  0.687500000       2.50000004E-02  0.140231729      -1.12987799E-03  0.140236273    
  0.687500000       7.50000030E-02  0.396094978      -1.38769625E-03  0.396097392    
  0.687500000      0.125000000      0.623930454       1.83544587E-03  0.623933136    
  0.687500000      0.175000012      0.821014166       7.07861688E-03  0.821044683    
  0.687500000      0.224999994      0.985919118       1.24591058E-02  0.985997796    
  0.687500000      0.275000006       1.11870992       1.62828825E-02   1.11882842    
  0.687500000      0.324999988       1.22075069       1.73825175E-02   1.22087443    
  0.687500000      0.375000000       1.29422092       1.53022325E-02   1.29431140    
  0.687500000      0.425000012       1.34150159       1.03188632E-02   1.34154129    
  0.687500000      0.475000024       1.36457479       3.32585978E-03   1.36457884    
  0.687500000      0.524999976       1.36455798      -4.37883707E-03   1.36456501    
  0.687500000      0.575000048       1.34144521      -1.13565885E-02   1.34149325    
  0.687500000      0.625000000       1.29412270      -1.63104534E-02   1.29422545    
  0.687500000      0.675000012       1.22060895      -1.83504503E-02   1.22074687    
  0.687500000      0.725000024       1.11852539      -1.72023997E-02   1.11865759    
  0.687500000      0.774999976      0.985698581      -1.33249797E-02  0.985788643    
  0.687500000      0.825000048      0.820774555      -7.88987428E-03  0.820812464    
  0.687500000      0.875000000      0.623700619      -2.59592826E-03  0.623706043    
  0.687500000      0.925000012      0.395919263       6.78539684E-04  0.395919859    
  0.687500000      0.975000024      0.140166074       7.89082376E-04  0.140168294    
  0.687500000       1.00000000       0.00000000       0.00000000       0.00000000    
  0.812500000       0.00000000       0.00000000       0.00000000       0.00000000    
  0.812500000       2.50000004E-02  0.135248318      -1.64568366E-03  0.135258332    
  0.812500000       7.50000030E-02  0.382253230      -3.76238115E-03  0.382271767    
  0.812500000      0.125000000      0.603770733      -3.64968413E-03  0.603781760    
  0.812500000      0.175000012      0.797986507      -1.87360286E-03  0.797988713    
  0.812500000      0.224999994      0.963613808       6.27479632E-04  0.963613987    
  0.812500000      0.275000006       1.10009146       2.92414404E-03   1.10009539    
  0.812500000      0.324999988       1.20759416       4.28700168E-03   1.20760179    
  0.812500000      0.375000000       1.28686416       4.32493212E-03   1.28687143    
  0.812500000      0.425000012       1.33890676       3.04044154E-03   1.33891022    
  0.812500000      0.475000024       1.36463785       7.97589950E-04   1.36463809    
  0.812500000      0.524999976       1.36460233      -1.78953866E-03   1.36460352    
  0.812500000      0.575000048       1.33879793      -4.01874445E-03   1.33880389    
  0.812500000      0.625000000       1.28668547      -5.27798291E-03   1.28669631    
  0.812500000      0.675000012       1.20734882      -5.20583056E-03   1.20736003    
  0.812500000      0.725000024       1.09978819      -3.80223221E-03   1.09979475    
  0.812500000      0.774999976      0.963271499      -1.46132836E-03  0.963272631    
  0.812500000      0.825000048      0.797632813       1.08420488E-03  0.797633588    
  0.812500000      0.875000000      0.603446007       2.90180161E-03  0.603452981    
  0.812500000      0.925000012      0.382012516       3.05910315E-03  0.382024765    
  0.812500000      0.975000024      0.135157257       1.30652881E-03  0.135163575    
  0.812500000       1.00000000       0.00000000       0.00000000       0.00000000    
  0.937500000       0.00000000       0.00000000       0.00000000       0.00000000    
  0.937500000       2.50000004E-02  0.132122934      -1.87284558E-03  0.132136211    
  0.937500000       7.50000030E-02  0.373320162      -4.83720889E-03  0.373351485    
  0.937500000      0.125000000      0.590167046      -6.20012078E-03  0.590199649    
  0.937500000      0.175000012      0.781379342      -6.14733994E-03  0.781403542    
  0.937500000      0.224999994      0.945887506      -5.16634993E-03  0.945901632    
  0.937500000      0.275000006       1.08296633      -3.77199939E-03   1.08297288    
  0.937500000      0.324999988       1.19228601      -2.41011404E-03   1.19228852    
  0.937500000      0.375000000       1.27387476      -1.37707824E-03   1.27387547    
  0.937500000      0.425000012       1.32798409      -7.76195084E-04   1.32798433    
  0.937500000      0.475000024       1.35491276      -5.23276511E-04   1.35491288    
  0.937500000      0.524999976       1.35486245      -3.98986624E-04   1.35486245    
  0.937500000      0.575000048       1.32783318      -1.35944691E-04   1.32783318    
  0.937500000      0.625000000       1.27363002       4.83595330E-04   1.27363014    
  0.937500000      0.675000012       1.19195628       1.54296751E-03   1.19195724    
  0.937500000      0.725000024       1.08256829       2.93690944E-03   1.08257222    
  0.937500000      0.774999976      0.945448995       4.36588097E-03  0.945459068    
  0.937500000      0.825000048      0.780936837       5.38094249E-03  0.780955374    
  0.937500000      0.875000000      0.589769125       5.46557363E-03  0.589794457    
  0.937500000      0.925000012      0.373030424       4.13980661E-03  0.373053372    
  0.937500000      0.975000024      0.132014468       1.53506827E-03  0.132023394    
  0.937500000       1.00000000       0.00000000       0.00000000       0.00000000    
   1.06250000       0.00000000       0.00000000       0.00000000       0.00000000    
   1.06250000       2.50000004E-02  0.129806995      -1.96930952E-03  0.129821941    
   1.06250000       7.50000030E-02  0.366625011      -5.30456193E-03  0.366663367    
   1.06250000      0.125000000      0.579684138      -7.33523723E-03  0.579730511    
   1.06250000      0.175000012      0.767984748      -8.09218176E-03  0.768027425    
   1.06250000      0.224999994      0.930614591      -7.85669964E-03  0.930647790    
   1.06250000      0.275000006       1.06683087      -6.93710521E-03   1.06685352    
   1.06250000      0.324999988       1.17610836      -5.62270544E-03   1.17612183    
   1.06250000      0.375000000       1.25814748      -4.14153701E-03   1.25815427    
   1.06250000      0.425000012       1.31282616      -2.63604056E-03   1.31282878    
   1.06250000      0.475000024       1.34012651      -1.15974050E-03   1.34012699    
   1.06250000      0.524999976       1.34006536       3.01331078E-04   1.34006536    
   1.06250000      0.575000048       1.31264412       1.78537925E-03   1.31264532    
   1.06250000      0.625000000       1.25785184       3.30485730E-03   1.25785625    
   1.06250000      0.675000012       1.17571485       4.80543636E-03   1.17572463    
   1.06250000      0.725000024       1.06636262       6.14287099E-03   1.06638026    
   1.06250000      0.774999976      0.930105329       7.08619598E-03  0.930132329    
   1.06250000      0.825000048      0.767477334       7.34529365E-03  0.767512441    
   1.06250000      0.875000000      0.579234481       6.61150506E-03  0.579272211    
   1.06250000      0.925000012      0.366301149       4.61092126E-03  0.366330177    
   1.06250000      0.975000024      0.129685283       1.63189345E-03  0.129695550    
   1.06250000       1.00000000       0.00000000       0.00000000       0.00000000    
   1.18750000       0.00000000       0.00000000       0.00000000       0.00000000    
   1.18750000       2.50000004E-02  0.127822772      -2.00604438E-03  0.127838507    
   1.18750000       7.50000030E-02  0.360900104      -5.49192354E-03  0.360941887    
   1.18750000      0.125000000      0.570609331      -7.80673884E-03  0.570662737    
   1.18750000      0.175000012      0.756098747      -8.92148726E-03  0.756151378    
   1.18750000      0.224999994      0.916552663      -9.02899075E-03  0.916597128    
   1.18750000      0.275000006       1.05124891      -8.34018365E-03   1.05128205    
   1.18750000      0.324999988       1.15959692      -7.06539769E-03   1.15961850    
   1.18750000      0.375000000       1.24116004      -5.39424177E-03   1.24117172    
   1.18750000      0.425000012       1.29564857      -3.48093128E-03   1.29565322    
   1.18750000      0.475000024       1.32289481      -1.44125696E-03   1.32289553    
   1.18750000      0.524999976       1.32282627       6.38617086E-04   1.32282639    
   1.18750000      0.575000048       1.29544425       2.68340809E-03   1.29544699    
   1.18750000      0.625000000       1.24082887       4.60625254E-03   1.24083745    
   1.18750000      0.675000012       1.15915918       6.29022159E-03   1.15917623    
   1.18750000      0.725000024       1.05073237       7.57963397E-03   1.05075967    
   1.18750000      0.774999976      0.915995836       8.28398019E-03  0.916033268    
   1.18750000      0.825000048      0.755548656       8.19244422E-03  0.755593061    
   1.18750000      0.875000000      0.570126295       7.09354179E-03  0.570170403    
   1.18750000      0.925000012      0.360554874       4.80335392E-03  0.360586852    
   1.18750000      0.975000024      0.127693444       1.67014019E-03  0.127704367    
   1.18750000       1.00000000       0.00000000       0.00000000       0.00000000    
   1.31250000       0.00000000       0.00000000       0.00000000       0.00000000    
   1.31250000       2.50000004E-02  0.125960916      -2.01851898E-03  0.125977084    
   1.31250000       7.50000030E-02  0.355566323      -5.55952080E-03  0.355609775    
   1.31250000      0.125000000      0.562129974      -7.98478629E-03  0.562186658    
   1.31250000      0.175000012      0.744875789      -9.24520381E-03  0.744933188    
   1.31250000      0.224999994      0.903046966      -9.49771982E-03  0.903096914    
   1.31250000      0.275000006       1.03594565      -8.91186111E-03   1.03598404    
   1.31250000      0.324999988       1.14296794      -7.66150560E-03   1.14299357    
   1.31250000      0.375000000       1.22362804      -5.91538940E-03   1.22364235    
   1.31250000      0.425000012       1.27756834      -3.83090135E-03   1.27757406    
   1.31250000      0.475000024       1.30455804      -1.55133323E-03   1.30455899    
   1.31250000      0.524999976       1.30448461       7.92967272E-04   1.30448484    
   1.31250000      0.575000048       1.27734995       3.07589304E-03   1.27735364    
   1.31250000      0.625000000       1.22327507       5.16568217E-03   1.22328603    
   1.31250000      0.675000012       1.14250231       6.91876467E-03   1.14252329    
   1.31250000      0.725000024       1.03539968       8.17734934E-03   1.03543198    
   1.31250000      0.774999976      0.902461529       8.77200998E-03  0.902504146    
   1.31250000      0.825000048      0.744301438       8.52877554E-03  0.744350314    
   1.31250000      0.875000000      0.561628103       7.27840466E-03  0.561675310    
   1.31250000      0.925000012      0.355209470       4.87300288E-03  0.355242908    
   1.31250000      0.975000024      0.125827670       1.68258138E-03  0.125838920    
   1.31250000       1.00000000       0.00000000       0.00000000       0.00000000    
   1.43750000       0.00000000       0.00000000       0.00000000       0.00000000    
   1.43750000       2.50000004E-02  0.124137431      -2.02146592E-03  0.124153890    
   1.43750000       7.50000030E-02  0.350371659      -5.57842012E-03  0.350416064    
   1.43750000      0.125000000      0.553878307      -8.03983398E-03  0.553936660    
   1.43750000      0.175000012      0.733920693      -9.35241766E-03  0.733980298    
   1.43750000      0.224999994      0.889777303      -9.66080837E-03  0.889829755    
   1.43750000      0.275000006       1.02077162      -9.11767967E-03   1.02081227    
   1.43750000      0.324999988       1.12630486      -7.88110401E-03   1.12633240    
   1.43750000      0.375000000       1.20587969      -6.10989053E-03   1.20589519    
   1.43750000      0.425000012       1.25911582      -3.96100525E-03   1.25912213    
   1.43750000      0.475000024       1.28575945      -1.58750755E-03   1.28576040    
   1.43750000      0.524999976       1.28568292       8.61220411E-04   1.28568316    
   1.43750000      0.575000048       1.25888956       3.23625933E-03   1.25889373    
   1.43750000      0.625000000       1.20551491       5.38764521E-03   1.20552695    
   1.43750000      0.675000012       1.12582493       7.16231391E-03   1.12584770    
   1.43750000      0.725000024       1.02021098       8.40280764E-03   1.02024555    
   1.43750000      0.774999976      0.889178157       8.94973241E-03  0.889223218    
   1.43750000      0.825000048      0.733335376       8.64570029E-03  0.733386338    
   1.43750000      0.875000000      0.553368807       7.33881816E-03  0.553417444    
   1.43750000      0.925000012      0.350010216       4.89441911E-03  0.350044429    
   1.43750000      0.975000024      0.124002129       1.68636686E-03  0.124013595    
   1.43750000       1.00000000       0.00000000       0.00000000       0.00000000    
   1.56250000       0.00000000       0.00000000       0.00000000       0.00000000    
   1.56250000       2.50000004E-02  0.122318640      -2.02049408E-03  0.122335322    
   1.56250000       7.50000030E-02  0.345213771      -5.57826925E-03  0.345258832    
   1.56250000      0.125000000      0.545698822      -8.04724265E-03  0.545758128    
   1.56250000      0.175000012      0.723060489      -9.37446393E-03  0.723121226    
   1.56250000      0.224999994      0.876598001      -9.70147178E-03  0.876651645    
   1.56250000      0.275000006       1.00565279      -9.17438604E-03   1.00569463    
   1.56250000      0.324999988       1.10963726      -7.94424489E-03   1.10966563    
   1.56250000      0.375000000       1.18805611      -6.16650656E-03   1.18807209    
   1.56250000      0.425000012       1.24052572      -3.99726722E-03   1.24053216    
   1.56250000      0.475000024       1.26678681      -1.59275753E-03   1.26678777    
   1.56250000      0.524999976       1.26670980       8.89729883E-04   1.26671016    
   1.56250000      0.575000048       1.24029684       3.29401111E-03   1.24030125    
   1.56250000      0.625000000       1.18768716       5.46400156E-03   1.18769968    
   1.56250000      0.675000012       1.10915327       7.24217016E-03   1.10917699    
   1.56250000      0.725000024       1.00508833       8.47225077E-03   1.00512397    
   1.56250000      0.774999976      0.875996113       8.99999402E-03  0.876042366    
   1.56250000      0.825000048      0.722473681       8.67448188E-03  0.722525775    
   1.56250000      0.875000000      0.545189857       7.35012768E-03  0.545239389    
   1.56250000      0.925000012      0.344853878       4.89585940E-03  0.344888628    
   1.56250000      0.975000024      0.122185186       1.68568292E-03  0.122196808    
   1.56250000       1.00000000       0.00000000       0.00000000       0.00000000    
   1.68750000       0.00000000       0.00000000       0.00000000       0.00000000    
   1.68750000       2.50000004E-02  0.120496392      -2.01928755E-03  0.120513313    
   1.68750000       7.50000030E-02  0.340058506      -5.57487784E-03  0.340104192    
   1.68750000      0.125000000      0.537533998      -8.04300513E-03  0.537594199    
   1.68750000      0.175000012      0.712225139      -9.37159732E-03  0.712286770    
   1.68750000      0.224999994      0.863446891      -9.70156863E-03  0.863501430    
   1.68750000      0.275000006      0.990554810      -9.17838886E-03  0.990597308    
   1.68750000      0.324999988       1.09297252      -7.95149338E-03   1.09300137    
   1.68750000      0.375000000       1.17021227      -6.17346168E-03   1.17022860    
   1.68750000      0.425000012       1.22189474      -4.00023162E-03   1.22190130    
   1.68750000      0.475000024       1.24776185      -1.58948870E-03   1.24776292    
   1.68750000      0.524999976       1.24768519       9.00606159E-04   1.24768555    
   1.68750000      0.575000048       1.22166657       3.31104430E-03   1.22167110    
   1.68750000      0.625000000       1.16984487       5.48308389E-03   1.16985774    
   1.68750000      0.675000012       1.09249067       7.25964271E-03   1.09251475    
   1.68750000      0.725000024      0.989993453       8.48510675E-03  0.990029812    
   1.68750000      0.774999976      0.862849474       9.00641829E-03  0.862896502    
   1.68750000      0.825000048      0.711643696       8.67504440E-03  0.711696625    
   1.68750000      0.875000000      0.537030578       7.34764151E-03  0.537080884    
   1.68750000      0.925000012      0.339703321       4.89337789E-03  0.339738578    
   1.68750000      0.975000024      0.120364211       1.68470002E-03  0.120375998    
   1.68750000       1.00000000       0.00000000       0.00000000       0.00000000    
   1.81250000       0.00000000       0.00000000       0.00000000       0.00000000    
   1.81250000       2.50000004E-02  0.118670166      -2.01825215E-03  0.118687324    
   1.81250000       7.50000030E-02  0.334896535      -5.57106547E-03  0.334942877    
   1.81250000      0.125000000      0.529364944      -8.03592429E-03  0.529425919    
   1.81250000      0.175000012      0.701390266      -9.36230458E-03  0.701452732    
   1.81250000      0.224999994      0.850300312      -9.69153270E-03  0.850355506    
   1.81250000      0.275000006      0.975462675      -9.16866399E-03  0.975505769    
   1.81250000      0.324999988       1.07631135      -7.94290099E-03   1.07634068    
   1.81250000      0.375000000       1.15236747      -6.16643019E-03   1.15238404    
   1.81250000      0.425000012       1.20325804      -3.99452634E-03   1.20326471    
   1.81250000      0.475000024       1.22872853      -1.58488681E-03   1.22872961    
   1.81250000      0.524999976       1.22865295       9.03948443E-04   1.22865331    
   1.81250000      0.575000048       1.20303226       3.31291603E-03   1.20303679    
   1.81250000      0.625000000       1.15200448       5.48318587E-03   1.15201747    
   1.81250000      0.675000012       1.07583559       7.25745130E-03   1.07586002    
   1.81250000      0.725000024      0.974908590       8.48046131E-03  0.974945486    
   1.81250000      0.774999976      0.849711180       9.00020450E-03  0.849758804    