 TITLE= "TESTPLOT" 
 VARIABLES="x","y","fx","fy","magf" 
 ZONE T="1", I=          81 , J=          21
   0.00000000       0.00000000       1.00000000       0.00000000       1.00000000    
   0.00000000       2.50000004E-02   1.00000000       0.00000000       1.00000000    
   0.00000000       7.50000030E-02   1.00000000       0.00000000       1.00000000    
   0.00000000      0.125000000       1.00000000       0.00000000       1.00000000    
   0.00000000      0.175000012       1.00000000       0.00000000       1.00000000    
   0.00000000      0.224999994       1.00000000       0.00000000       1.00000000    
   0.00000000      0.275000006       1.00000000       0.00000000       1.00000000    
   0.00000000      0.324999988       1.00000000       0.00000000       1.00000000    
   0.00000000      0.375000000       1.00000000       0.00000000       1.00000000    
   0.00000000      0.425000012       1.00000000       0.00000000       1.00000000    
   0.00000000      0.475000024       1.00000000       0.00000000       1.00000000    
   0.00000000      0.524999976       1.00000000       0.00000000       1.00000000    
   0.00000000      0.575000048       1.00000000       0.00000000       1.00000000    
   0.00000000      0.625000000       1.00000000       0.00000000       1.00000000    
   0.00000000      0.675000012       1.00000000       0.00000000       1.00000000    
   0.00000000      0.725000024       1.00000000       0.00000000       1.00000000    
   0.00000000      0.774999976       1.00000000       0.00000000       1.00000000    
   0.00000000      0.825000048       1.00000000       0.00000000       1.00000000    
   0.00000000      0.875000000       1.00000000       0.00000000       1.00000000    
   0.00000000      0.925000012       1.00000000       0.00000000       1.00000000    
   0.00000000      0.975000024       1.00000000       0.00000000       1.00000000    
   0.00000000       1.00000000       1.00000000       0.00000000       1.00000000    
   6.25000000E-02   0.00000000      0.500000000       0.00000000      0.500000000    
   6.25000000E-02   2.50000004E-02  0.716381252      0.111083865      0.724942565    
   6.25000000E-02   7.50000030E-02  0.919971824      0.251637220      0.953765929    
   6.25000000E-02  0.125000000       1.01073050      0.274276733       1.04728401    
   6.25000000E-02  0.175000012       1.04560161      0.246669948       1.07430387    
   6.25000000E-02  0.224999994       1.05378914      0.201842248       1.07294536    
   6.25000000E-02  0.275000006       1.05049419      0.155058980       1.06187630    
   6.25000000E-02  0.324999988       1.04348922      0.112396285       1.04952502    
   6.25000000E-02  0.375000000       1.03656065       7.53068626E-02   1.03929257    
   6.25000000E-02  0.425000012       1.03141379       4.30475250E-02   1.03231168    
   6.25000000E-02  0.475000024       1.02873230       1.39197335E-02   1.02882648    
   6.25000000E-02  0.524999976       1.02873814      -1.41381621E-02   1.02883530    
   6.25000000E-02  0.575000048       1.03143179      -4.32762578E-02   1.03233922    
   6.25000000E-02  0.625000000       1.03659153      -7.55556524E-02   1.03934145    
   6.25000000E-02  0.675000012       1.04353452     -0.112675704       1.04960001    
   6.25000000E-02  0.725000024       1.05055642     -0.155381531       1.06198502    
   6.25000000E-02  0.774999976       1.05386782     -0.202220857       1.07309401    
   6.25000000E-02  0.825000048       1.04569495     -0.247115731       1.07449710    
   6.25000000E-02  0.875000000       1.01083279     -0.274796724       1.04751909    
   6.25000000E-02  0.925000012      0.920070052     -0.252221286      0.954014897    
   6.25000000E-02  0.975000024      0.716450632     -0.111388907      0.725057900    
   6.25000000E-02   1.00000000      0.500000000       0.00000000      0.500000000    
  0.187500000       0.00000000       0.00000000       0.00000000       0.00000000    
  0.187500000       2.50000004E-02  0.338618547       3.52734216E-02  0.340450794    
  0.187500000       7.50000030E-02  0.729764819      0.112050638      0.738317072    
  0.187500000      0.125000000      0.947877288      0.180423379      0.964895844    
  0.187500000      0.175000012       1.06122088      0.216722235       1.08312428    
  0.187500000      0.224999994       1.11299610      0.221422583       1.13480759    
  0.187500000      0.275000006       1.13064134      0.202269375       1.14859164    
  0.187500000      0.324999988       1.13128424      0.167561337       1.14362609    
  0.187500000      0.375000000       1.12529588      0.123844922       1.13209021    
  0.187500000      0.425000012       1.11869192       7.55048841E-02   1.12123704    
  0.187500000      0.475000024       1.11470234       2.51399837E-02   1.11498582    
  0.187500000      0.524999976       1.11472034      -2.57766973E-02   1.11501837    
  0.187500000      0.575000048       1.11874580      -7.61515051E-02   1.12133455    
  0.187500000      0.625000000       1.12538505     -0.124509335       1.13225174    
  0.187500000      0.675000012       1.13140798     -0.168249905       1.14384961    
  0.187500000      0.725000024       1.13079786     -0.202983990       1.14887178    
  0.187500000      0.774999976       1.11317849     -0.222159296       1.13513041    
  0.187500000      0.825000048       1.06141877     -0.217471585       1.08346832    
  0.187500000      0.875000000      0.948074102     -0.181169957      0.965228975    
  0.187500000      0.925000012      0.729936182     -0.112767518      0.738595545    
  0.187500000      0.975000024      0.338728666      -3.56200077E-02  0.340596378    
  0.187500000       1.00000000       0.00000000       0.00000000       0.00000000    
  0.312500000       0.00000000       0.00000000       0.00000000       0.00000000    
  0.312500000       2.50000004E-02  0.212849855       1.02655282E-02  0.213097259    
  0.312500000       7.50000030E-02  0.558436751       4.24227938E-02  0.560045779    
  0.312500000      0.125000000      0.813187003       8.61924961E-02  0.817742169    
  0.312500000      0.175000012      0.987254024      0.123101205      0.994899213    
  0.312500000      0.224999994       1.09791517      0.143769145       1.10728824    
  0.312500000      0.275000006       1.16287315      0.145812452       1.17197919    
  0.312500000      0.324999988       1.19742370      0.130922645       1.20455980    
  0.312500000      0.375000000       1.21352839      0.102641620       1.21786141    
  0.312500000      0.425000012       1.21975994       6.50127977E-02   1.22149134    
  0.312500000      0.475000024       1.22156990       2.19548829E-02   1.22176719    
  0.312500000      0.524999976       1.22159433      -2.28733402E-02   1.22180843    
  0.312500000      0.575000048       1.21982908      -6.59301430E-02   1.22160947    
  0.312500000      0.625000000       1.21363807     -0.103555277       1.21804810    
  0.312500000      0.675000012       1.19756639     -0.131827503       1.20480025    
  0.312500000      0.725000024       1.16303647     -0.146700948       1.17225218    
  0.312500000      0.774999976       1.09808493     -0.144632250       1.10756898    
  0.312500000      0.825000048      0.987413466     -0.123928651      0.995160162    
  0.312500000      0.875000000      0.813320279      -8.69748667E-02  0.817957520    
  0.312500000      0.925000012      0.558532834      -4.31474485E-02  0.560196936    
  0.312500000      0.975000024      0.212903827      -1.06112426E-02  0.213168100    
  0.312500000       1.00000000       0.00000000       0.00000000       0.00000000    
  0.437500000       0.00000000       0.00000000       0.00000000       0.00000000    
  0.437500000       2.50000004E-02  0.168333918       2.77163135E-03  0.168356732    
  0.437500000       7.50000030E-02  0.466686249       1.52156316E-02  0.466934234    
  0.437500000      0.125000000      0.715139031       3.70995775E-02  0.716100693    
  0.437500000      0.175000012      0.910246015       5.99570721E-02  0.912218571    
  0.437500000      0.224999994       1.05521178       7.69223049E-02   1.05801177    
  0.437500000      0.275000006       1.15724158       8.39633048E-02   1.16028357    
  0.437500000      0.324999988       1.22511983       7.97777176E-02   1.22771454    
  0.437500000      0.375000000       1.26742435       6.51728660E-02   1.26909888    
  0.437500000      0.425000012       1.29135156       4.23580222E-02   1.29204607    
  0.437500000      0.475000024       1.30200672       1.43559203E-02   1.30208588    
  0.437500000      0.524999976       1.30202413      -1.54110892E-02   1.30211532    
  0.437500000      0.575000048       1.29139817      -4.34027575E-02   1.29212725    
  0.437500000      0.625000000       1.26749372      -6.61965162E-02   1.26922119    
  0.437500000      0.675000012       1.22520041      -8.07686150E-02   1.22785974    
  0.437500000      0.725000024       1.15732050      -8.49109590E-02   1.16043127    
  0.437500000      0.774999976       1.05527616      -7.78189152E-02   1.05814159    
  0.437500000      0.825000048      0.910285115      -6.07970841E-02  0.912313163    
  0.437500000      0.875000000      0.715151966      -3.78813185E-02  0.716154575    
  0.437500000      0.925000012      0.466683984      -1.59358922E-02  0.466955990    
  0.437500000      0.975000024      0.168338537      -3.11546936E-03  0.168367356    
  0.437500000       1.00000000       0.00000000       0.00000000       0.00000000    
  0.562500000       0.00000000       0.00000000       0.00000000       0.00000000    
  0.562500000       2.50000004E-02  0.149403930       3.08919625E-05  0.149403930    
  0.562500000       7.50000030E-02  0.420387298       3.77288554E-03  0.420404226    
  0.562500000      0.125000000      0.657205999       1.33159291E-02  0.657340884    
  0.562500000      0.175000012      0.855934978       2.50994116E-02  0.856302917    
  0.562500000      0.224999994       1.01577473       3.53814885E-02   1.01639068    
  0.562500000      0.275000006       1.13874030       4.12660092E-02   1.13948774    
  0.562500000      0.324999988       1.22877169       4.11419533E-02   1.22946024    
  0.562500000      0.375000000       1.29063630       3.47522125E-02   1.29110408    
  0.562500000      0.425000012       1.32889676       2.30152924E-02   1.32909608    
  0.562500000      0.475000024       1.34707630       7.72274937E-03   1.34709847    
  0.562500000      0.524999976       1.34707761      -8.80821981E-03   1.34710646    
  0.562500000      0.575000048       1.32889605      -2.40859985E-02   1.32911432    
  0.562500000      0.625000000       1.29062700      -3.57938930E-02   1.29112327    
  0.562500000      0.675000012       1.22874546      -4.21419516E-02   1.22946799    
  0.562500000      0.725000024       1.13869071      -4.22143713E-02   1.13947296    
  0.562500000      0.774999976       1.01569712      -3.62719223E-02   1.01634455    
  0.562500000      0.825000048      0.855831861      -2.59296726E-02  0.856224537    
  0.562500000      0.875000000      0.657092094      -1.40886521E-02  0.657243133    
  0.562500000      0.925000012      0.420292616      -4.48706187E-03  0.420316577    
  0.562500000      0.975000024      0.149370581      -3.72408831E-04  0.149371043    
  0.562500000       1.00000000       0.00000000       0.00000000       0.00000000    
  0.687500000       0.00000000       0.00000000       0.00000000       0.00000000    
  0.687500000       2.50000004E-02  0.140228242      -1.12998846E-03  0.140232801    
  0.687500000       7.50000030E-02  0.396089613      -1.38801278E-03  0.396092027    
  0.687500000      0.125000000      0.623924792       1.83492200E-03  0.623927474    
  0.687500000      0.175000012      0.821008384       7.07793189E-03  0.821038842    
  0.687500000      0.224999994      0.985914052       1.24582881E-02  0.985992789    
  0.687500000      0.275000006       1.11870515       1.62818991E-02   1.11882365    
  0.687500000      0.324999988       1.22074580       1.73813850E-02   1.22086954    
  0.687500000      0.375000000       1.29421616       1.53013859E-02   1.29430664    
  0.687500000      0.425000012       1.34149587       1.03184506E-02   1.34153557    
  0.687500000      0.475000024       1.36456919       3.32548958E-03   1.36457324    
  0.687500000      0.524999976       1.36455202      -4.37890505E-03   1.36455905    
  0.687500000      0.575000048       1.34143960      -1.13562858E-02   1.34148765    
  0.687500000      0.625000000       1.29411781      -1.63102131E-02   1.29422057    
  0.687500000      0.675000012       1.22060442      -1.83502957E-02   1.22074234    
  0.687500000      0.725000024       1.11852121      -1.72023140E-02   1.11865342    
  0.687500000      0.774999976      0.985695124      -1.33250365E-02  0.985785186    
  0.687500000      0.825000048      0.820770442      -7.89021514E-03  0.820808351    
  0.687500000      0.875000000      0.623696446      -2.59680697E-03  0.623701870    
  0.687500000      0.925000012      0.395915091       6.77578733E-04  0.395915657    
  0.687500000      0.975000024      0.140163943       7.88721605E-04  0.140166163    
  0.687500000       1.00000000       0.00000000       0.00000000       0.00000000    
  0.812500000       0.00000000       0.00000000       0.00000000       0.00000000    
  0.812500000       2.50000004E-02  0.135244086      -1.64591486E-03  0.135254100    
  0.812500000       7.50000030E-02  0.382246733      -3.76298698E-03  0.382265240    
  0.812500000      0.125000000      0.603764117      -3.65065457E-03  0.603775144    
  0.812500000      0.175000012      0.797980249      -1.87461637E-03  0.797982454    
  0.812500000      0.224999994      0.963608384       6.26474095E-04  0.963608623    
  0.812500000      0.275000006       1.10008597       2.92269187E-03   1.10008991    
  0.812500000      0.324999988       1.20758879       4.28494345E-03   1.20759642    
  0.812500000      0.375000000       1.28685951       4.32278495E-03   1.28686678    
  0.812500000      0.425000012       1.33890116       3.03893490E-03   1.33890462    
  0.812500000      0.475000024       1.36463213       7.97072658E-04   1.36463237    
  0.812500000      0.524999976       1.36459661      -1.78882421E-03   1.36459780    
  0.812500000      0.575000048       1.33879256      -4.01734840E-03   1.33879852    
  0.812500000      0.625000000       1.28668022      -5.27665671E-03   1.28669107    
  0.812500000      0.675000012       1.20734358      -5.20485919E-03   1.20735478    
  0.812500000      0.725000024       1.09978366      -3.80136957E-03   1.09979022    
  0.812500000      0.774999976      0.963267207      -1.46040833E-03  0.963268280    
  0.812500000      0.825000048      0.797628164       1.08480942E-03  0.797628880    
  0.812500000      0.875000000      0.603441238       2.90196855E-03  0.603448212    
  0.812500000      0.925000012      0.382007837       3.05900117E-03  0.382020086    
  0.812500000      0.975000024      0.135154039       1.30644452E-03  0.135160357    
  0.812500000       1.00000000       0.00000000       0.00000000       0.00000000    
  0.937500000       0.00000000       0.00000000       0.00000000       0.00000000    
  0.937500000       2.50000004E-02  0.132118925      -1.87341799E-03  0.132132202    
  0.937500000       7.50000030E-02  0.373312712      -4.83861566E-03  0.373344064    
  0.937500000      0.125000000      0.590159535      -6.20195735E-03  0.590192139    
  0.937500000      0.175000012      0.781373024      -6.14963565E-03  0.781397223    
  0.937500000      0.224999994      0.945882559      -5.16876113E-03  0.945896685    
  0.937500000      0.275000006       1.08296132      -3.77385132E-03   1.08296788    
  0.937500000      0.324999988       1.19228148      -2.41127447E-03   1.19228399    
  0.937500000      0.375000000       1.27386999      -1.37767370E-03   1.27387071    
  0.937500000      0.425000012       1.32797933      -7.76133500E-04   1.32797956    
  0.937500000      0.475000024       1.35490823      -5.22449787E-04   1.35490835    
  0.937500000      0.524999976       1.35485733      -3.97794356E-04   1.35485733    
  0.937500000      0.575000048       1.32782793      -1.34813192E-04   1.32782793    
  0.937500000      0.625000000       1.27362466       4.84997377E-04   1.27362478    
  0.937500000      0.675000012       1.19195104       1.54460699E-03   1.19195199    
  0.937500000      0.725000024       1.08256364       2.93846382E-03   1.08256757    
  0.937500000      0.774999976      0.945444226       4.36727377E-03  0.945454299    
  0.937500000      0.825000048      0.780931354       5.38205728E-03  0.780949891    
  0.937500000      0.875000000      0.589763224       5.46646118E-03  0.589788556    
  0.937500000      0.925000012      0.373024344       4.14042454E-03  0.373047322    
  0.937500000      0.975000024      0.132010236       1.53530121E-03  0.132019162    
  0.937500000       1.00000000       0.00000000       0.00000000       0.00000000    
   1.06250000       0.00000000       0.00000000       0.00000000       0.00000000    
   1.06250000       2.50000004E-02  0.129801646      -1.96903432E-03  0.129816577    
   1.06250000       7.50000030E-02  0.366616726      -5.30430675E-03  0.366655082    
   1.06250000      0.125000000      0.579675972      -7.33514549E-03  0.579722345    
   1.06250000      0.175000012      0.767978013      -8.09204020E-03  0.768020630    
   1.06250000      0.224999994      0.930609345      -7.85673689E-03  0.930642486    
   1.06250000      0.275000006       1.06682587      -6.93680812E-03   1.06684840    
   1.06250000      0.324999988       1.17610407      -5.62186353E-03   1.17611754    
   1.06250000      0.375000000       1.25814271      -4.14101779E-03   1.25814950    
   1.06250000      0.425000012       1.31282210      -2.63581099E-03   1.31282473    
   1.06250000      0.475000024       1.34012294      -1.15885120E-03   1.34012341    
   1.06250000      0.524999976       1.34006119       3.02594999E-04   1.34006119    
   1.06250000      0.575000048       1.31263924       1.78608205E-03   1.31264043    
   1.06250000      0.625000000       1.25784719       3.30516603E-03   1.25785160    
   1.06250000      0.675000012       1.17570972       4.80556674E-03   1.17571950    
   1.06250000      0.725000024       1.06635690       6.14321418E-03   1.06637466    
   1.06250000      0.774999976      0.930099249       7.08717201E-03  0.930126250    
   1.06250000      0.825000048      0.767470598       7.34634511E-03  0.767505765    
   1.06250000      0.875000000      0.579226971       6.61229389E-03  0.579264700    
   1.06250000      0.925000012      0.366293609       4.61140182E-03  0.366322637    
   1.06250000      0.975000024      0.129680216       1.63203990E-03  0.129690483    
   1.06250000       1.00000000       0.00000000       0.00000000       0.00000000    
   1.18750000       0.00000000       0.00000000       0.00000000       0.00000000    
   1.18750000       2.50000004E-02  0.127816498      -2.00588931E-03  0.127832234    
   1.18750000       7.50000030E-02  0.360891819      -5.49184997E-03  0.360933602    
   1.18750000      0.125000000      0.570601583      -7.80674443E-03  0.570654988    
   1.18750000      0.175000012      0.756092191      -8.92104395E-03  0.756144822    
   1.18750000      0.224999994      0.916547060      -9.02778096E-03  0.916591525    
   1.18750000      0.275000006       1.05124378      -8.33852775E-03   1.05127680    
   1.18750000      0.324999988       1.15959179      -7.06387591E-03   1.15961337    
   1.18750000      0.375000000       1.24115491      -5.39295841E-03   1.24116659    
   1.18750000      0.425000012       1.29564404      -3.47983465E-03   1.29564869    
   1.18750000      0.475000024       1.32289016      -1.44021574E-03   1.32289088    
   1.18750000      0.524999976       1.32282138       6.39640260E-04   1.32282150    
   1.18750000      0.575000048       1.29543924       2.68408540E-03   1.29544199    
   1.18750000      0.625000000       1.24082422       4.60634287E-03   1.24083281    
   1.18750000      0.675000012       1.15915382       6.28975919E-03   1.15917087    
   1.18750000      0.725000024       1.05072641       7.57904677E-03   1.05075371    
   1.18750000      0.774999976      0.915989220       8.28382932E-03  0.916026652    
   1.18750000      0.825000048      0.755541563       8.19238462E-03  0.755585968    
   1.18750000      0.875000000      0.570118308       7.09341466E-03  0.570162416    
   1.18750000      0.925000012      0.360546410       4.80316579E-03  0.360578388    
   1.18750000      0.975000024      0.127686828       1.66996219E-03  0.127697751    
   1.18750000       1.00000000       0.00000000       0.00000000       0.00000000    
   1.31250000       0.00000000       0.00000000       0.00000000       0.00000000    
   1.31250000       2.50000004E-02  0.125955448      -2.01790594E-03  0.125971615    
   1.31250000       7.50000030E-02  0.355558217      -5.55823324E-03  0.355601639    
   1.31250000      0.125000000      0.562121809      -7.98343588E-03  0.562178493    
   1.31250000      0.175000012      0.744868875      -9.24394373E-03  0.744926274    
   1.31250000      0.224999994      0.903040767      -9.49674100E-03  0.903090715    
   1.31250000      0.275000006       1.03593957      -8.91124085E-03   1.03597784    
   1.31250000      0.324999988       1.14296174      -7.66085088E-03   1.14298737    
   1.31250000      0.375000000       1.22362220      -5.91481663E-03   1.22363651    
   1.31250000      0.425000012       1.27756262      -3.83038772E-03   1.27756834    
   1.31250000      0.475000024       1.30455136      -1.54985581E-03   1.30455232    
   1.31250000      0.524999976       1.30447793       7.95178814E-04   1.30447817    
   1.31250000      0.575000048       1.27734423       3.07771424E-03   1.27734792    
   1.31250000      0.625000000       1.22326946       5.16672060E-03   1.22328043    
   1.31250000      0.675000012       1.14249671       6.91934209E-03   1.14251769    
   1.31250000      0.725000024       1.03539312       8.17776192E-03   1.03542542    
   1.31250000      0.774999976      0.902454376       8.77222978E-03  0.902496994    
   1.31250000      0.825000048      0.744293809       8.52865167E-03  0.744342625    
   1.31250000      0.875000000      0.561620057       7.27828499E-03  0.561667204    
   1.31250000      0.925000012      0.355201036       4.87342570E-03  0.355234474    
   1.31250000      0.975000024      0.125821531       1.68293680E-03  0.125832781    
   1.31250000       1.00000000       0.00000000       0.00000000       0.00000000    
   1.43750000       0.00000000       0.00000000       0.00000000       0.00000000    
   1.43750000       2.50000004E-02  0.124131531      -2.02083797E-03  0.124147981    
   1.43750000       7.50000030E-02  0.350363016      -5.57721686E-03  0.350407422    
   1.43750000      0.125000000      0.553869605      -8.03864188E-03  0.553927958    
   1.43750000      0.175000012      0.733913302      -9.35105514E-03  0.733972907    
   1.43750000      0.224999994      0.889770687      -9.65966936E-03  0.889823139    
   1.43750000      0.275000006       1.02076495      -9.11692996E-03   1.02080560    
   1.43750000      0.324999988       1.12629843      -7.88014103E-03   1.12632596    
   1.43750000      0.375000000       1.20587325      -6.10877108E-03   1.20588875    
   1.43750000      0.425000012       1.25910926      -3.95961432E-03   1.25911546    
   1.43750000      0.475000024       1.28575206      -1.58553629E-03   1.28575301    
   1.43750000      0.524999976       1.28567600       8.63051508E-04   1.28567624    
   1.43750000      0.575000048       1.25888300       3.23747704E-03   1.25888717    
   1.43750000      0.625000000       1.20550859       5.38871344E-03   1.20552063    
   1.43750000      0.675000012       1.12581885       7.16338679E-03   1.12584162    
   1.43750000      0.725000024       1.02020335       8.40338506E-03   1.02023792    
   1.43750000      0.774999976      0.889170051       8.94994196E-03  0.889215112    
   1.43750000      0.825000048      0.733326852       8.64562206E-03  0.733377814    
   1.43750000      0.875000000      0.553360045       7.33863283E-03  0.553408682    
   1.43750000      0.925000012      0.350001633       4.89424681E-03  0.350035846    
   1.43750000      0.975000024      0.123996437       1.68618478E-03  0.124007903    
   1.43750000       1.00000000       0.00000000       0.00000000       0.00000000    
   1.56250000       0.00000000       0.00000000       0.00000000       0.00000000    
   1.56250000       2.50000004E-02  0.122313067      -2.02034391E-03  0.122329749    
   1.56250000       7.50000030E-02  0.345205188      -5.57827018E-03  0.345250249    
   1.56250000      0.125000000      0.545690238      -8.04733485E-03  0.545749545    
   1.56250000      0.175000012      0.723052502      -9.37426835E-03  0.723113239    
   1.56250000      0.224999994      0.876590550      -9.70072486E-03  0.876644254    
   1.56250000      0.275000006       1.00564575      -9.17325541E-03   1.00568759    
   1.56250000      0.324999988       1.10963011      -7.94333592E-03   1.10965860    
   1.56250000      0.375000000       1.18804860      -6.16545789E-03   1.18806458    
   1.56250000      0.425000012       1.24051809      -3.99613567E-03   1.24052453    
   1.56250000      0.475000024       1.26677918      -1.59211084E-03   1.26678014    
   1.56250000      0.524999976       1.26670206       8.90408934E-04   1.26670241    
   1.56250000      0.575000048       1.24028897       3.29483533E-03   1.24029338    
   1.56250000      0.625000000       1.18767929       5.46446303E-03   1.18769181    
   1.56250000      0.675000012       1.10914516       7.24286493E-03   1.10916877    
   1.56250000      0.725000024       1.00507951       8.47326592E-03   1.00511515    
   1.56250000      0.774999976      0.875986457       9.00081731E-03  0.876032710    
   1.56250000      0.825000048      0.722463787       8.67494009E-03  0.722515881    
   1.56250000      0.875000000      0.545179665       7.35061988E-03  0.545229197    
   1.56250000      0.925000012      0.344843924       4.89655836E-03  0.344878674    
   1.56250000      0.975000024      0.122178346       1.68598781E-03  0.122189976    
   1.56250000       1.00000000       0.00000000       0.00000000       0.00000000    
   1.68750000       0.00000000       0.00000000       0.00000000       0.00000000    
   1.68750000       2.50000004E-02  0.120490819      -2.01973598E-03  0.120507747    
   1.68750000       7.50000030E-02  0.340049326      -5.57562523E-03  0.340095043    
   1.68750000      0.125000000      0.537524760      -8.04332644E-03  0.537584960    
   1.68750000      0.175000012      0.712216139      -9.37141944E-03  0.712277770    
   1.68750000      0.224999994      0.863438129      -9.70145129E-03  0.863492608    
   1.68750000      0.275000006      0.990546346      -9.17833857E-03  0.990588844    
   1.68750000      0.324999988       1.09296393      -7.95106590E-03   1.09299290    
   1.68750000      0.375000000       1.17020369      -6.17317064E-03   1.17022002    
   1.68750000      0.425000012       1.22188592      -4.00009938E-03   1.22189248    
   1.68750000      0.475000024       1.24775338      -1.58910058E-03   1.24775434    
   1.68750000      0.524999976       1.24767613       9.00815998E-04   1.24767649    
   1.68750000      0.575000048       1.22165716       3.31116584E-03   1.22166169    
   1.68750000      0.625000000       1.16983533       5.48370322E-03   1.16984820    
   1.68750000      0.675000012       1.09248078       7.26028066E-03   1.09250486    
   1.68750000      0.725000024      0.989983201       8.48554354E-03  0.990019560    
   1.68750000      0.774999976      0.862838507       9.00696591E-03  0.862885475    
   1.68750000      0.825000048      0.711632490       8.67582671E-03  0.711685359    
   1.68750000      0.875000000      0.537018776       7.34845456E-03  0.537069082    
   1.68750000      0.925000012      0.339691758       4.89419792E-03  0.339727014    
   1.68750000      0.975000024      0.120358206       1.68519618E-03  0.120370001    
   1.68750000       1.00000000       0.00000000       0.00000000       0.00000000    
   1.81250000       0.00000000       0.00000000       0.00000000       0.00000000    
   1.81250000       2.50000004E-02  0.118663594      -2.01900746E-03  0.118680768    
   1.81250000       7.50000030E-02  0.334885716      -5.57257235E-03  0.334932089    
   1.81250000      0.125000000      0.529354572      -8.03712755E-03  0.529415607    
   1.81250000      0.175000012      0.701380968      -9.36299283E-03  0.701443434    
   1.81250000      0.224999994      0.850291610      -9.69197322E-03  0.850346863    
   1.81250000      0.275000006      0.975454211      -9.16912407E-03  0.975497305    
   1.81250000      0.324999988       1.07630301      -7.94330891E-03   1.07633233    
   1.81250000      0.375000000       1.15235901      -6.16669748E-03   1.15237546    
   1.81250000      0.425000012       1.20324945      -3.99482343E-03   1.20325613    
   1.81250000      0.475000024       1.22872019      -1.58510462E-03   1.22872126    
   1.81250000      0.524999976       1.22864389       9.03977547E-04   1.22864425    
   1.81250000      0.575000048       1.20302296       3.31296073E-03   1.20302749    
   1.81250000      0.625000000       1.15199494       5.48312766E-03   1.15200806    
   1.81250000      0.675000012       1.07582593       7.25727947E-03   1.07585037    
   1.81250000      0.725000024      0.974898756       8.48006271E-03  0.974935651    
   1.81250000      0.774999976      0.849701047       8.99959542E-03  0.849748731    