 TITLE= "TESTPLOT" 
 VARIABLES="x","y","fx","fy","magf" 
 ZONE T="1", I=          81 , J=          21
   0.00000000       0.00000000       1.00000000       0.00000000       1.00000000    
   0.00000000       2.50000004E-02   1.00000000       0.00000000       1.00000000    
   0.00000000       7.50000030E-02   1.00000000       0.00000000       1.00000000    
   0.00000000      0.125000000       1.00000000       0.00000000       1.00000000    
   0.00000000      0.175000012       1.00000000       0.00000000       1.00000000    
   0.00000000      0.224999994       1.00000000       0.00000000       1.00000000    
   0.00000000      0.275000006       1.00000000       0.00000000       1.00000000    
   0.00000000      0.324999988       1.00000000       0.00000000       1.00000000    
   0.00000000      0.375000000       1.00000000       0.00000000       1.00000000    
   0.00000000      0.425000012       1.00000000       0.00000000       1.00000000    
   0.00000000      0.475000024       1.00000000       0.00000000       1.00000000    
   0.00000000      0.524999976       1.00000000       0.00000000       1.00000000    
   0.00000000      0.575000048       1.00000000       0.00000000       1.00000000    
   0.00000000      0.625000000       1.00000000       0.00000000       1.00000000    
   0.00000000      0.675000012       1.00000000       0.00000000       1.00000000    
   0.00000000      0.725000024       1.00000000       0.00000000       1.00000000    
   0.00000000      0.774999976       1.00000000       0.00000000       1.00000000    
   0.00000000      0.825000048       1.00000000       0.00000000       1.00000000    
   0.00000000      0.875000000       1.00000000       0.00000000       1.00000000    
   0.00000000      0.925000012       1.00000000       0.00000000       1.00000000    
   0.00000000      0.975000024       1.00000000       0.00000000       1.00000000    
   0.00000000       1.00000000       1.00000000       0.00000000       1.00000000    
   6.25000000E-02   0.00000000      0.500000000       0.00000000      0.500000000    
   6.25000000E-02   2.50000004E-02  0.716384292      0.111085087      0.724945784    
   6.25000000E-02   7.50000030E-02  0.919976830      0.251640230      0.953771532    
   6.25000000E-02  0.125000000       1.01073599      0.274280071       1.04729021    
   6.25000000E-02  0.175000012       1.04560661      0.246673197       1.07430947    
   6.25000000E-02  0.224999994       1.05379403      0.201845467       1.07295084    
   6.25000000E-02  0.275000006       1.05049884      0.155061662       1.06188130    
   6.25000000E-02  0.324999988       1.04349351      0.112398341       1.04952955    
   6.25000000E-02  0.375000000       1.03656483       7.53082484E-02   1.03929687    
   6.25000000E-02  0.425000012       1.03141797       4.30481881E-02   1.03231585    
   6.25000000E-02  0.475000024       1.02873635       1.39196934E-02   1.02883053    
   6.25000000E-02  0.524999976       1.02874243      -1.41384117E-02   1.02883959    
   6.25000000E-02  0.575000048       1.03143609      -4.32764813E-02   1.03234363    
   6.25000000E-02  0.625000000       1.03659606      -7.55558610E-02   1.03934598    
   6.25000000E-02  0.675000012       1.04353917     -0.112675995       1.04960465    
   6.25000000E-02  0.725000024       1.05056083     -0.155381769       1.06198943    
   6.25000000E-02  0.774999976       1.05387235     -0.202221036       1.07309842    
   6.25000000E-02  0.825000048       1.04569936     -0.247115850       1.07450151    
   6.25000000E-02  0.875000000       1.01083732     -0.274796844       1.04752338    
   6.25000000E-02  0.925000012      0.920073867     -0.252221823      0.954018772    
   6.25000000E-02  0.975000024      0.716452420     -0.111389264      0.725059748    
   6.25000000E-02   1.00000000      0.500000000       0.00000000      0.500000000    
  0.187500000       0.00000000       0.00000000       0.00000000       0.00000000    
  0.187500000       2.50000004E-02  0.338625222       3.52744646E-02  0.340457529    
  0.187500000       7.50000030E-02  0.729777336      0.112053081      0.738329768    
  0.187500000      0.125000000      0.947891593      0.180426180      0.964910388    
  0.187500000      0.175000012       1.06123507      0.216724783       1.08313870    
  0.187500000      0.224999994       1.11300969      0.221424699       1.13482130    
  0.187500000      0.275000006       1.13065493      0.202271566       1.14860547    
  0.187500000      0.324999988       1.13129759      0.167563349       1.14363968    
  0.187500000      0.375000000       1.12530947      0.123846494       1.13210392    
  0.187500000      0.425000012       1.11870551       7.55065084E-02   1.12125075    
  0.187500000      0.475000024       1.11471605       2.51411945E-02   1.11499953    
  0.187500000      0.524999976       1.11473441      -2.57761069E-02   1.11503243    
  0.187500000      0.575000048       1.11876035      -7.61511549E-02   1.12134910    
  0.187500000      0.625000000       1.12539947     -0.124509372       1.13226604    
  0.187500000      0.675000012       1.13142216     -0.168250084       1.14386368    
  0.187500000      0.725000024       1.13081157     -0.202983677       1.14888525    
  0.187500000      0.774999976       1.11319184     -0.222158745       1.13514340    
  0.187500000      0.825000048       1.06143200     -0.217471480       1.08348131    
  0.187500000      0.875000000      0.948087156     -0.181170553      0.965241969    
  0.187500000      0.925000012      0.729947090     -0.112768583      0.738606453    
  0.187500000      0.975000024      0.338733286      -3.56205851E-02  0.340601027    
  0.187500000       1.00000000       0.00000000       0.00000000       0.00000000    
  0.312500000       0.00000000       0.00000000       0.00000000       0.00000000    
  0.312500000       2.50000004E-02  0.212859437       1.02669876E-02  0.213106900    
  0.312500000       7.50000030E-02  0.558456540       4.24263924E-02  0.560065806    
  0.312500000      0.125000000      0.813209951       8.61965865E-02  0.817765415    
  0.312500000      0.175000012      0.987277269      0.123104706      0.994922698    
  0.312500000      0.224999994       1.09793806      0.143771589       1.10731125    
  0.312500000      0.275000006       1.16289651      0.145814270       1.17200255    
  0.312500000      0.324999988       1.19744802      0.130924717       1.20458412    
  0.312500000      0.375000000       1.21355319      0.102643527       1.21788633    
  0.312500000      0.425000012       1.21978509       6.50142729E-02   1.22151649    
  0.312500000      0.475000024       1.22159588       2.19562240E-02   1.22179317    
  0.312500000      0.524999976       1.22162008      -2.28723623E-02   1.22183418    
  0.312500000      0.575000048       1.21985519      -6.59291148E-02   1.22163546    
  0.312500000      0.625000000       1.21366405     -0.103554443       1.21807384    
  0.312500000      0.675000012       1.19759166     -0.131827712       1.20482540    
  0.312500000      0.725000024       1.16306126     -0.146701887       1.17227685    
  0.312500000      0.774999976       1.09810889     -0.144633263       1.10759282    
  0.312500000      0.825000048      0.987437487     -0.123929590      0.995184064    
  0.312500000      0.875000000      0.813344240      -8.69759917E-02  0.817981482    
  0.312500000      0.925000012      0.558552861      -4.31486070E-02  0.560217023    
  0.312500000      0.975000024      0.212912828      -1.06117614E-02  0.213177115    
  0.312500000       1.00000000       0.00000000       0.00000000       0.00000000    
  0.437500000       0.00000000       0.00000000       0.00000000       0.00000000    
  0.437500000       2.50000004E-02  0.168348983       2.77303602E-03  0.168371826    
  0.437500000       7.50000030E-02  0.466716051       1.52185988E-02  0.466964126    
  0.437500000      0.125000000      0.715173006       3.71030420E-02  0.716134787    
  0.437500000      0.175000012      0.910279930       5.99608049E-02  0.912252605    
  0.437500000      0.224999994       1.05524552       7.69257993E-02   1.05804574    
  0.437500000      0.275000006       1.15727568       8.39664787E-02   1.16031778    
  0.437500000      0.324999988       1.22515452       7.97806680E-02   1.22774935    
  0.437500000      0.375000000       1.26746058       6.51754439E-02   1.26913512    
  0.437500000      0.425000012       1.29138827       4.23599444E-02   1.29208279    
  0.437500000      0.475000024       1.30204439       1.43573312E-02   1.30212355    
  0.437500000      0.524999976       1.30206108      -1.54100843E-02   1.30215228    
  0.437500000      0.575000048       1.29143548      -4.34024669E-02   1.29216456    
  0.437500000      0.625000000       1.26753104      -6.61968440E-02   1.26925850    
  0.437500000      0.675000012       1.22523701      -8.07694793E-02   1.22789633    
  0.437500000      0.725000024       1.15735650      -8.49123150E-02   1.16046727    
  0.437500000      0.774999976       1.05531192      -7.78201893E-02   1.05817723    
  0.437500000      0.825000048      0.910321355      -6.07983544E-02  0.912349403    
  0.437500000      0.875000000      0.715188146      -3.78831029E-02  0.716190755    
  0.437500000      0.925000012      0.466714740      -1.59374997E-02  0.466986775    
  0.437500000      0.975000024      0.168354392      -3.11602512E-03  0.168383226    
  0.437500000       1.00000000       0.00000000       0.00000000       0.00000000    
  0.562500000       0.00000000       0.00000000       0.00000000       0.00000000    
  0.562500000       2.50000004E-02  0.149424136       3.20352192E-05  0.149424136    
  0.562500000       7.50000030E-02  0.420426011       3.77572421E-03  0.420442969    
  0.562500000      0.125000000      0.657250404       1.33193303E-02  0.657385349    
  0.562500000      0.175000012      0.855979443       2.51026414E-02  0.856347442    
  0.562500000      0.224999994       1.01581812       3.53844427E-02   1.01643419    
  0.562500000      0.275000006       1.13878393       4.12687212E-02   1.13953149    
  0.562500000      0.324999988       1.22881579       4.11443077E-02   1.22950447    
  0.562500000      0.375000000       1.29068208       3.47542427E-02   1.29114985    
  0.562500000      0.425000012       1.32894373       2.30169110E-02   1.32914305    
  0.562500000      0.475000024       1.34712362       7.72381341E-03   1.34714580    
  0.562500000      0.524999976       1.34712458      -8.80774762E-03   1.34715343    
  0.562500000      0.575000048       1.32894349      -2.40859315E-02   1.32916176    
  0.562500000      0.625000000       1.29067397      -3.57941240E-02   1.29117024    
  0.562500000      0.675000012       1.22879219      -4.21425402E-02   1.22951460    
  0.562500000      0.725000024       1.13873637      -4.22152728E-02   1.13951862    
  0.562500000      0.774999976       1.01574314      -3.62731442E-02   1.01639056    
  0.562500000      0.825000048      0.855879009      -2.59312987E-02  0.856271744    
  0.562500000      0.875000000      0.657139063      -1.40907690E-02  0.657290101    
  0.562500000      0.925000012      0.420332968      -4.48936224E-03  0.420356959    
  0.562500000      0.975000024      0.149391145      -3.73533025E-04  0.149391621    
  0.562500000       1.00000000       0.00000000       0.00000000       0.00000000    
  0.687500000       0.00000000       0.00000000       0.00000000       0.00000000    
  0.687500000       2.50000004E-02  0.140251771      -1.12877029E-03  0.140256315    
  0.687500000       7.50000030E-02  0.396135926      -1.38528470E-03  0.396138340    
  0.687500000      0.125000000      0.623978853       1.83788827E-03  0.623981535    
  0.687500000      0.175000012      0.821063161       7.08066393E-03  0.821093678    
  0.687500000      0.224999994      0.985967278       1.24607608E-02  0.986046016    
  0.687500000      0.275000006       1.11875868       1.62842330E-02   1.11887717    
  0.687500000      0.324999988       1.22079992       1.73835456E-02   1.22092366    
  0.687500000      0.375000000       1.29427147       1.53034125E-02   1.29436195    
  0.687500000      0.425000012       1.34155345       1.03202201E-02   1.34159315    
  0.687500000      0.475000024       1.36462712       3.32669495E-03   1.36463118    
  0.687500000      0.524999976       1.36460972      -4.37829876E-03   1.36461675    
  0.687500000      0.575000048       1.34149730      -1.13562848E-02   1.34154534    
  0.687500000      0.625000000       1.29417491      -1.63106322E-02   1.29427767    
  0.687500000      0.675000012       1.22066045      -1.83507763E-02   1.22079837    
  0.687500000      0.725000024       1.11857700      -1.72029734E-02   1.11870933    
  0.687500000      0.774999976      0.985750854      -1.33260190E-02  0.985840917    
  0.687500000      0.825000048      0.820827246      -7.89127313E-03  0.820865214    
  0.687500000      0.875000000      0.623752713      -2.59761559E-03  0.623758078    
  0.687500000      0.925000012      0.395963132       6.76965341E-04  0.395963699    
  0.687500000      0.975000024      0.140187442       7.88406876E-04  0.140189663    
  0.687500000       1.00000000       0.00000000       0.00000000       0.00000000    
  0.812500000       0.00000000       0.00000000       0.00000000       0.00000000    
  0.812500000       2.50000004E-02  0.135270730      -1.64480915E-03  0.135280728    
  0.812500000       7.50000030E-02  0.382300943      -3.76038207E-03  0.382319450    
  0.812500000      0.125000000      0.603827596      -3.64748994E-03  0.603838563    
  0.812500000      0.175000012      0.798044443      -1.87157933E-03  0.798046649    
  0.812500000      0.224999994      0.963670850       6.29228540E-04  0.963671088    
  0.812500000      0.275000006       1.10014844       2.92582018E-03   1.10015237    
  0.812500000      0.324999988       1.20765221       4.28821240E-03   1.20765984    
  0.812500000      0.375000000       1.28692424       4.32528183E-03   1.28693151    
  0.812500000      0.425000012       1.33896756       3.04062897E-03   1.33897102    
  0.812500000      0.475000024       1.36469948       7.98079069E-04   1.36469972    
  0.812500000      0.524999976       1.36466396      -1.78885041E-03   1.36466515    
  0.812500000      0.575000048       1.33885956      -4.01848136E-03   1.33886564    
  0.812500000      0.625000000       1.28674579      -5.27818641E-03   1.28675663    
  0.812500000      0.675000012       1.20740807      -5.20604290E-03   1.20741928    
  0.812500000      0.725000024       1.09984827      -3.80254071E-03   1.09985483    
  0.812500000      0.774999976      0.963332295      -1.46198366E-03  0.963333428    
  0.812500000      0.825000048      0.797693789       1.08303141E-03  0.797694564    
  0.812500000      0.875000000      0.603505850       2.90016597E-03  0.603512824    
  0.812500000      0.925000012      0.382062614       3.05737951E-03  0.382074833    
  0.812500000      0.975000024      0.135180831       1.30572682E-03  0.135187134    
  0.812500000       1.00000000       0.00000000       0.00000000       0.00000000    
  0.937500000       0.00000000       0.00000000       0.00000000       0.00000000    
  0.937500000       2.50000004E-02  0.132148534      -1.87217549E-03  0.132161796    
  0.937500000       7.50000030E-02  0.373374462      -4.83568246E-03  0.373405755    
  0.937500000      0.125000000      0.590231776      -6.19838387E-03  0.590264320    
  0.937500000      0.175000012      0.781445682      -6.14571292E-03  0.781469822    
  0.937500000      0.224999994      0.945953488      -5.16509637E-03  0.945967615    
  0.937500000      0.275000006       1.08303118      -3.77113000E-03   1.08303773    
  0.937500000      0.324999988       1.19235206      -2.40953336E-03   1.19235456    
  0.937500000      0.375000000       1.27394247      -1.37638312E-03   1.27394319    
  0.937500000      0.425000012       1.32805228      -7.75292749E-04   1.32805252    
  0.937500000      0.475000024       1.35498238      -5.22586110E-04   1.35498250    
  0.937500000      0.524999976       1.35493207      -3.98588745E-04   1.35493207    
  0.937500000      0.575000048       1.32790208      -1.35566341E-04   1.32790208    
  0.937500000      0.625000000       1.27369761       4.84070071E-04   1.27369773    
  0.937500000      0.675000012       1.19202328       1.54331420E-03   1.19202435    
  0.937500000      0.725000024       1.08263624       2.93705007E-03   1.08264017    
  0.937500000      0.774999976      0.945518374       4.36567329E-03  0.945528448    
  0.937500000      0.825000048      0.781006336       5.38015319E-03  0.781024873    
  0.937500000      0.875000000      0.589836836       5.46430610E-03  0.589862168    
  0.937500000      0.925000012      0.373086691       4.13852697E-03  0.373109639    
  0.937500000      0.975000024      0.132040128       1.53449655E-03  0.132049039    
  0.937500000       1.00000000       0.00000000       0.00000000       0.00000000    
   1.06250000       0.00000000       0.00000000       0.00000000       0.00000000    
   1.06250000       2.50000004E-02  0.129835591      -1.96820730E-03  0.129850507    
   1.06250000       7.50000030E-02  0.366686285      -5.30214608E-03  0.366724610    
   1.06250000      0.125000000      0.579757035      -7.33275805E-03  0.579803407    
   1.06250000      0.175000012      0.768059254      -8.08985345E-03  0.768101871    
   1.06250000      0.224999994      0.930688977      -7.85440672E-03  0.930722117    
   1.06250000      0.275000006       1.06690407      -6.93495944E-03   1.06692660    
   1.06250000      0.324999988       1.17618215      -5.62072918E-03   1.17619562    
   1.06250000      0.375000000       1.25822234      -4.13990440E-03   1.25822914    
   1.06250000      0.425000012       1.31290245      -2.63491226E-03   1.31290507    
   1.06250000      0.475000024       1.34020400      -1.15887634E-03   1.34020448    
   1.06250000      0.524999976       1.34014297       3.02103464E-04   1.34014297    
   1.06250000      0.575000048       1.31272054       1.78591406E-03   1.31272173    
   1.06250000      0.625000000       1.25792766       3.30481585E-03   1.25793195    
   1.06250000      0.675000012       1.17578983       4.80484543E-03   1.17579961    
   1.06250000      0.725000024       1.06643820       6.14210311E-03   1.06645584    
   1.06250000      0.774999976      0.930182338       7.08552171E-03  0.930209339    
   1.06250000      0.825000048      0.767555356       7.34453928E-03  0.767590523    
   1.06250000      0.875000000      0.579310060       6.61040749E-03  0.579347789    
   1.06250000      0.925000012      0.366363794       4.60977666E-03  0.366392791    
   1.06250000      0.975000024      0.129713818       1.63137633E-03  0.129724070    
   1.06250000       1.00000000       0.00000000       0.00000000       0.00000000    
   1.18750000       0.00000000       0.00000000       0.00000000       0.00000000    
   1.18750000       2.50000004E-02  0.127854258      -2.00518128E-03  0.127869979    
   1.18750000       7.50000030E-02  0.360968560      -5.48997149E-03  0.361010313    
   1.18750000      0.125000000      0.570690870      -7.80463917E-03  0.570744216    
   1.18750000      0.175000012      0.756181657      -8.91968794E-03  0.756234288    
   1.18750000      0.224999994      0.916634798      -9.02744010E-03  0.916679263    
   1.18750000      0.275000006       1.05133009      -8.33869912E-03   1.05136311    
   1.18750000      0.324999988       1.15967822      -7.06394017E-03   1.15969968    
   1.18750000      0.375000000       1.24124265      -5.39274607E-03   1.24125433    
   1.18750000      0.425000012       1.29573274      -3.47958389E-03   1.29573750    
   1.18750000      0.475000024       1.32297957      -1.44029350E-03   1.32298028    
   1.18750000      0.524999976       1.32291102       6.39260805E-04   1.32291114    
   1.18750000      0.575000048       1.29552841       2.68371543E-03   1.29553115    
   1.18750000      0.625000000       1.24091268       4.60625906E-03   1.24092126    
   1.18750000      0.675000012       1.15924191       6.29002508E-03   1.15925896    
   1.18750000      0.725000024       1.05081511       7.57924747E-03   1.05084240    
   1.18750000      0.774999976      0.916079879       8.28341395E-03  0.916117311    
   1.18750000      0.825000048      0.755634725       8.19153525E-03  0.755679131    
   1.18750000      0.875000000      0.570210099       7.09205121E-03  0.570254207    
   1.18750000      0.925000012      0.360624015       4.80154809E-03  0.360655963    
   1.18750000      0.975000024      0.127724022       1.66925788E-03  0.127734929    
   1.18750000       1.00000000       0.00000000       0.00000000       0.00000000    
   1.31250000       0.00000000       0.00000000       0.00000000       0.00000000    
   1.31250000       2.50000004E-02  0.125995547      -2.01764749E-03  0.126011699    
   1.31250000       7.50000030E-02  0.355641663      -5.55756129E-03  0.355685085    
   1.31250000      0.125000000      0.562219620      -7.98262842E-03  0.562276304    
   1.31250000      0.175000012      0.744967282      -9.24319774E-03  0.745024562    
   1.31250000      0.224999994      0.903136969      -9.49596986E-03  0.903186858    
   1.31250000      0.275000006       1.03603458      -8.91037192E-03   1.03607297    
   1.31250000      0.324999988       1.14305687      -7.66040292E-03   1.14308250    
   1.31250000      0.375000000       1.22371793      -5.91469416E-03   1.22373223    
   1.31250000      0.425000012       1.27766013      -3.83043941E-03   1.27766585    
   1.31250000      0.475000024       1.30464959      -1.55075663E-03   1.30465055    
   1.31250000      0.524999976       1.30457616       7.93761283E-04   1.30457640    
   1.31250000      0.575000048       1.27744150       3.07657523E-03   1.27744520    
   1.31250000      0.625000000       1.22336626       5.16596343E-03   1.22337723    
   1.31250000      0.675000012       1.14259315       6.91893790E-03   1.14261413    
   1.31250000      0.725000024       1.03549027       8.17749184E-03   1.03552258    
   1.31250000      0.774999976      0.902553320       8.77172500E-03  0.902595937    
   1.31250000      0.825000048      0.744395316       8.52800440E-03  0.744444191    
   1.31250000      0.875000000      0.561719954       7.27717299E-03  0.561767101    
   1.31250000      0.925000012      0.355285585       4.87198960E-03  0.355318993    
   1.31250000      0.975000024      0.125861719       1.68229314E-03  0.125872955    
   1.31250000       1.00000000       0.00000000       0.00000000       0.00000000    
   1.43750000       0.00000000       0.00000000       0.00000000       0.00000000    
   1.43750000       2.50000004E-02  0.124174476      -2.02044821E-03  0.124190912    
   1.43750000       7.50000030E-02  0.350453496      -5.57615329E-03  0.350497842    
   1.43750000      0.125000000      0.553975940      -8.03751592E-03  0.554034293    
   1.43750000      0.175000012      0.734020710      -9.35055502E-03  0.734080255    
   1.43750000      0.224999994      0.889875472      -9.65942629E-03  0.889927864    
   1.43750000      0.275000006       1.02086806      -9.11655650E-03   1.02090871    
   1.43750000      0.324999988       1.12640142      -7.87999108E-03   1.12642896    
   1.43750000      0.375000000       1.20597696      -6.10878877E-03   1.20599246    
   1.43750000      0.425000012       1.25921440      -3.95989092E-03   1.25922060    
   1.43750000      0.475000024       1.28585792      -1.58657029E-03   1.28585887    
   1.43750000      0.524999976       1.28578162       8.61763663E-04   1.28578186    
   1.43750000      0.575000048       1.25898838       3.23658762E-03   1.25899255    
   1.43750000      0.625000000       1.20561361       5.38788689E-03   1.20562565    
   1.43750000      0.675000012       1.12592387       7.16245594E-03   1.12594664    
   1.43750000      0.725000024       1.02030981       8.40269960E-03   1.02034438    
   1.43750000      0.774999976      0.889278293       8.94911774E-03  0.889323354    
   1.43750000      0.825000048      0.733437598       8.64433683E-03  0.733488560    
   1.43750000      0.875000000      0.553469300       7.33704772E-03  0.553517938    
   1.43750000      0.925000012      0.350094140       4.89265099E-03  0.350128323    
   1.43750000      0.975000024      0.124040246       1.68547977E-03  0.124051698    
   1.43750000       1.00000000       0.00000000       0.00000000       0.00000000    
   1.56250000       0.00000000       0.00000000       0.00000000       0.00000000    
   1.56250000       2.50000004E-02  0.122358754      -2.01992877E-03  0.122375429    
   1.56250000       7.50000030E-02  0.345302343      -5.57704037E-03  0.345347375    
   1.56250000      0.125000000      0.545804799      -8.04606546E-03  0.545864105    
   1.56250000      0.175000012      0.723168671      -9.37347487E-03  0.723229408    
   1.56250000      0.224999994      0.876703858      -9.70046781E-03  0.876757503    
   1.56250000      0.275000006       1.00575697      -9.17342212E-03   1.00579882    
   1.56250000      0.324999988       1.10974109      -7.94344023E-03   1.10976946    
   1.56250000      0.375000000       1.18816054      -6.16572425E-03   1.18817651    
   1.56250000      0.425000012       1.24063158      -3.99655988E-03   1.24063802    
   1.56250000      0.475000024       1.26689315      -1.59222470E-03   1.26689410    
   1.56250000      0.524999976       1.26681590       8.90102179E-04   1.26681626    
   1.56250000      0.575000048       1.24040270       3.29422159E-03   1.24040711    
   1.56250000      0.625000000       1.18779302       5.46407467E-03   1.18780553    
   1.56250000      0.675000012       1.10925913       7.24226050E-03   1.10928273    
   1.56250000      0.725000024       1.00519466       8.47243890E-03   1.00523031    
   1.56250000      0.774999976      0.876104116       9.00009647E-03  0.876150310    
   1.56250000      0.825000048      0.722584486       8.67415220E-03  0.722636521    
   1.56250000      0.875000000      0.545298934       7.34930672E-03  0.545348406    
   1.56250000      0.925000012      0.344944894       4.89502680E-03  0.344979614    
   1.56250000      0.975000024      0.122226298       1.68533449E-03  0.122237921    
   1.56250000       1.00000000       0.00000000       0.00000000       0.00000000    
   1.68750000       0.00000000       0.00000000       0.00000000       0.00000000    
   1.68750000       2.50000004E-02  0.120540738      -2.01850082E-03  0.120557636    
   1.68750000       7.50000030E-02  0.340154529      -5.57313068E-03  0.340200186    
   1.68750000      0.125000000      0.537648559      -8.04117415E-03  0.537708700    
   1.68750000      0.175000012      0.712341964      -9.37009975E-03  0.712403595    
   1.68750000      0.224999994      0.863561034      -9.70052835E-03  0.863615513    
   1.68750000      0.275000006      0.990666986      -9.17758979E-03  0.990709484    
   1.68750000      0.324999988       1.09308434      -7.95076136E-03   1.09311330    
   1.68750000      0.375000000       1.17032480      -6.17293362E-03   1.17034113    
   1.68750000      0.425000012       1.22200823      -3.99985677E-03   1.22201478    
   1.68750000      0.475000024       1.24787593      -1.58916425E-03   1.24787688    
   1.68750000      0.524999976       1.24779916       9.00812738E-04   1.24779952    
   1.68750000      0.575000048       1.22177994       3.31115304E-03   1.22178447    
   1.68750000      0.625000000       1.16995776       5.48326923E-03   1.16997063    
   1.68750000      0.675000012       1.09260368       7.25988438E-03   1.09262776    
   1.68750000      0.725000024      0.990107059       8.48519988E-03  0.990143418    
   1.68750000      0.774999976      0.862965107       9.00626089E-03  0.863012135    
   1.68750000      0.825000048      0.711762786       8.67456198E-03  0.711815655    
   1.68750000      0.875000000      0.537147343       7.34689087E-03  0.537197590    
   1.68750000      0.925000012      0.339800537       4.89265937E-03  0.339835763    
   1.68750000      0.975000024      0.120409295       1.68441189E-03  0.120421074    
   1.68750000       1.00000000       0.00000000       0.00000000       0.00000000    
   1.81250000       0.00000000       0.00000000       0.00000000       0.00000000    
   1.81250000       2.50000004E-02  0.118717372      -2.01790989E-03  0.118734516    
   1.81250000       7.50000030E-02  0.334999174      -5.57018630E-03  0.335045487    
   1.81250000      0.125000000      0.529487848      -8.03482253E-03  0.529548824    
   1.81250000      0.175000012      0.701515794      -9.36109573E-03  0.701578259    
   1.81250000      0.224999994      0.850423396      -9.69026145E-03  0.850478590    
   1.81250000      0.275000006      0.975583553      -9.16745793E-03  0.975626647    
   1.81250000      0.324999988       1.07643175      -7.94173777E-03   1.07646108    
   1.81250000      0.375000000       1.15248859      -6.16571307E-03   1.15250504    
   1.81250000      0.425000012       1.20338011      -3.99451936E-03   1.20338678    
   1.81250000      0.475000024       1.22885084      -1.58516446E-03   1.22885180    
   1.81250000      0.524999976       1.22877502       9.03762993E-04   1.22877538    
   1.81250000      0.575000048       1.20315433       3.31280241E-03   1.20315886    
   1.81250000      0.625000000       1.15212584       5.48277888E-03   1.15213883    
   1.81250000      0.675000012       1.07595682       7.25671649E-03   1.07598138    
   1.81250000      0.725000024      0.975030541       8.47954489E-03  0.975067377    
   1.81250000      0.774999976      0.849835396       8.99898633E-03  0.849883020    