 TITLE= "TESTPLOT" 
 VARIABLES="x","y","fx","fy","magf" 
 ZONE T="1", I=          81 , J=          21
   0.00000000       0.00000000       1.00000000       0.00000000       1.00000000    
   0.00000000       2.50000004E-02   1.00000000       0.00000000       1.00000000    
   0.00000000       7.50000030E-02   1.00000000       0.00000000       1.00000000    
   0.00000000      0.125000000       1.00000000       0.00000000       1.00000000    
   0.00000000      0.175000012       1.00000000       0.00000000       1.00000000    
   0.00000000      0.224999994       1.00000000       0.00000000       1.00000000    
   0.00000000      0.275000006       1.00000000       0.00000000       1.00000000    
   0.00000000      0.324999988       1.00000000       0.00000000       1.00000000    
   0.00000000      0.375000000       1.00000000       0.00000000       1.00000000    
   0.00000000      0.425000012       1.00000000       0.00000000       1.00000000    
   0.00000000      0.475000024       1.00000000       0.00000000       1.00000000    
   0.00000000      0.524999976       1.00000000       0.00000000       1.00000000    
   0.00000000      0.575000048       1.00000000       0.00000000       1.00000000    
   0.00000000      0.625000000       1.00000000       0.00000000       1.00000000    
   0.00000000      0.675000012       1.00000000       0.00000000       1.00000000    
   0.00000000      0.725000024       1.00000000       0.00000000       1.00000000    
   0.00000000      0.774999976       1.00000000       0.00000000       1.00000000    
   0.00000000      0.825000048       1.00000000       0.00000000       1.00000000    
   0.00000000      0.875000000       1.00000000       0.00000000       1.00000000    
   0.00000000      0.925000012       1.00000000       0.00000000       1.00000000    
   0.00000000      0.975000024       1.00000000       0.00000000       1.00000000    
   0.00000000       1.00000000       1.00000000       0.00000000       1.00000000    
   6.25000000E-02   0.00000000      0.500000000       0.00000000      0.500000000    
   6.25000000E-02   2.50000004E-02  0.716375947      0.111083254      0.724937201    
   6.25000000E-02   7.50000030E-02  0.919963598      0.251636326      0.953757763    
   6.25000000E-02  0.125000000       1.01072216      0.274276555       1.04727590    
   6.25000000E-02  0.175000012       1.04559374      0.246670619       1.07429636    
   6.25000000E-02  0.224999994       1.05378199      0.201843441       1.07293856    
   6.25000000E-02  0.275000006       1.05048704      0.155059829       1.06186938    
   6.25000000E-02  0.324999988       1.04348183      0.112396404       1.04951763    
   6.25000000E-02  0.375000000       1.03655291       7.53065944E-02   1.03928483    
   6.25000000E-02  0.425000012       1.03140604       4.30470519E-02   1.03230393    
   6.25000000E-02  0.475000024       1.02872455       1.39187751E-02   1.02881873    
   6.25000000E-02  0.524999976       1.02873039      -1.41391493E-02   1.02882755    
   6.25000000E-02  0.575000048       1.03142428      -4.32768315E-02   1.03233182    
   6.25000000E-02  0.625000000       1.03658414      -7.55560696E-02   1.03933406    
   6.25000000E-02  0.675000012       1.04352736     -0.112676412       1.04959297    
   6.25000000E-02  0.725000024       1.05054903     -0.155382365       1.06197786    
   6.25000000E-02  0.774999976       1.05386019     -0.202221423       1.07308662    
   6.25000000E-02  0.825000048       1.04568672     -0.247115940       1.07448912    
   6.25000000E-02  0.875000000       1.01082420     -0.274796605       1.04751074    
   6.25000000E-02  0.925000012      0.920061350     -0.252220899      0.954006433    
   6.25000000E-02  0.975000024      0.716444850     -0.111388594      0.725052178    
   6.25000000E-02   1.00000000      0.500000000       0.00000000      0.500000000    
  0.187500000       0.00000000       0.00000000       0.00000000       0.00000000    
  0.187500000       2.50000004E-02  0.338601798       3.52728292E-02  0.340434074    
  0.187500000       7.50000030E-02  0.729738355      0.112050153      0.738290846    
  0.187500000      0.125000000      0.947850704      0.180424273      0.964869857    
  0.187500000      0.175000012       1.06119657      0.216723993       1.08310091    
  0.187500000      0.224999994       1.11297369      0.221424639       1.13478601    
  0.187500000      0.275000006       1.13061976      0.202271551       1.14857078    
  0.187500000      0.324999988       1.13126230      0.167563230       1.14360476    
  0.187500000      0.375000000       1.12527370      0.123846307       1.13206840    
  0.187500000      0.425000012       1.11866951       7.55059719E-02   1.12121475    
  0.187500000      0.475000024       1.11468005       2.51403078E-02   1.11496353    
  0.187500000      0.524999976       1.11469841      -2.57774238E-02   1.11499643    
  0.187500000      0.575000048       1.11872435      -7.61527866E-02   1.12131321    
  0.187500000      0.625000000       1.12536359     -0.124511063       1.13223064    
  0.187500000      0.675000012       1.13138652     -0.168251976       1.14382875    
  0.187500000      0.725000024       1.13077593     -0.202986091       1.14885056    
  0.187500000      0.774999976       1.11315584     -0.222161382       1.13510859    
  0.187500000      0.825000048       1.06139433     -0.217473656       1.08344483    
  0.187500000      0.875000000      0.948047400     -0.181171507      0.965203106    
  0.187500000      0.925000012      0.729909062     -0.112767927      0.738568783    
  0.187500000      0.975000024      0.338710845      -3.56198996E-02  0.340578645    
  0.187500000       1.00000000       0.00000000       0.00000000       0.00000000    
  0.312500000       0.00000000       0.00000000       0.00000000       0.00000000    
  0.312500000       2.50000004E-02  0.212820515       1.02652395E-02  0.213067934    
  0.312500000       7.50000030E-02  0.558390558       4.24230397E-02  0.559999764    
  0.312500000      0.125000000      0.813141346       8.61941278E-02  0.817696929    
  0.312500000      0.175000012      0.987212718      0.123103663      0.994858503    
  0.312500000      0.224999994       1.09787703      0.143771470       1.10725069    
  0.312500000      0.275000006       1.16283679      0.145814434       1.17194331    
  0.312500000      0.324999988       1.19738817      0.130924731       1.20452476    
  0.312500000      0.375000000       1.21349275      0.102643222       1.21782601    
  0.312500000      0.425000012       1.21972418       6.50136918E-02   1.22145557    
  0.312500000      0.475000024       1.22153473       2.19553635E-02   1.22173202    
  0.312500000      0.524999976       1.22155881      -2.28735115E-02   1.22177291    
  0.312500000      0.575000048       1.21979403      -6.59307688E-02   1.22157454    
  0.312500000      0.625000000       1.21360302     -0.103556499       1.21801329    
  0.312500000      0.675000012       1.19753098     -0.131829649       1.20476532    
  0.312500000      0.725000024       1.16300082     -0.146703884       1.17221713    
  0.312500000      0.774999976       1.09804773     -0.144635573       1.10753250    
  0.312500000      0.825000048      0.987373352     -0.123931468      0.995120645    
  0.312500000      0.875000000      0.813276172      -8.69765133E-02  0.817913830    
  0.312500000      0.925000012      0.558487594      -4.31478098E-02  0.560151875    
  0.312500000      0.975000024      0.212874264      -1.06111392E-02  0.213138565    
  0.312500000       1.00000000       0.00000000       0.00000000       0.00000000    
  0.437500000       0.00000000       0.00000000       0.00000000       0.00000000    
  0.437500000       2.50000004E-02  0.168292731       2.77158804E-03  0.168315545    
  0.437500000       7.50000030E-02  0.466622055       1.52161559E-02  0.466870070    
  0.437500000      0.125000000      0.715075612       3.71013582E-02  0.716037452    
  0.437500000      0.175000012      0.910188317       5.99598363E-02  0.912161112    
  0.437500000      0.224999994       1.05515885       7.69250914E-02   1.05795920    
  0.437500000      0.275000006       1.15719092       8.39655101E-02   1.16023314    
  0.437500000      0.324999988       1.22507024       7.97795951E-02   1.22766519    
  0.437500000      0.375000000       1.26737571       6.51743338E-02   1.26905036    
  0.437500000      0.425000012       1.29130292       4.23587114E-02   1.29199743    
  0.437500000      0.475000024       1.30195856       1.43560180E-02   1.30203772    
  0.437500000      0.524999976       1.30197573      -1.54114440E-02   1.30206692    
  0.437500000      0.575000048       1.29135072      -4.34037596E-02   1.29207993    
  0.437500000      0.625000000       1.26744568      -6.61979243E-02   1.26917326    
  0.437500000      0.675000012       1.22515202      -8.07704777E-02   1.22781157    
  0.437500000      0.725000024       1.15727162      -8.49134102E-02   1.16038263    
  0.437500000      0.774999976       1.05522513      -7.78214186E-02   1.05809093    
  0.437500000      0.825000048      0.910230041      -6.07992187E-02  0.912258327    
  0.437500000      0.875000000      0.715091109      -3.78828421E-02  0.716093838    
  0.437500000      0.925000012      0.466621518      -1.59361623E-02  0.466893584    
  0.437500000      0.975000024      0.168298915      -3.11516412E-03  0.168327734    
  0.437500000       1.00000000       0.00000000       0.00000000       0.00000000    
  0.562500000       0.00000000       0.00000000       0.00000000       0.00000000    
  0.562500000       2.50000004E-02  0.149351776       3.04325804E-05  0.149351776    
  0.562500000       7.50000030E-02  0.420304716       3.77277588E-03  0.420321643    
  0.562500000      0.125000000      0.657124400       1.33170299E-02  0.657259345    
  0.562500000      0.175000012      0.855861306       2.51012072E-02  0.856229305    
  0.562500000      0.224999994       1.01570690       3.53833325E-02   1.01632297    
  0.562500000      0.275000006       1.13867569       4.12675813E-02   1.13942325    
  0.562500000      0.324999988       1.22870755       4.11434993E-02   1.22939622    
  0.562500000      0.375000000       1.29057372       3.47537622E-02   1.29104161    
  0.562500000      0.425000012       1.32883573       2.30163708E-02   1.32903504    
  0.562500000      0.475000024       1.34701514       7.72282621E-03   1.34703732    
  0.562500000      0.524999976       1.34701681      -8.80901236E-03   1.34704566    
  0.562500000      0.575000048       1.32883632      -2.40873210E-02   1.32905459    
  0.562500000      0.625000000       1.29056633      -3.57954800E-02   1.29106259    
  0.562500000      0.675000012       1.22868419      -4.21439782E-02   1.22940671    
  0.562500000      0.725000024       1.13862813      -4.22167480E-02   1.13941050    
  0.562500000      0.774999976       1.01563215      -3.62742469E-02   1.01627970    
  0.562500000      0.825000048      0.855761528      -2.59319656E-02  0.856154382    
  0.562500000      0.875000000      0.657013893      -1.40904551E-02  0.657164991    
  0.562500000      0.925000012      0.420212567      -4.48791496E-03  0.420236528    
  0.562500000      0.975000024      0.149319798      -3.72609211E-04  0.149320275    
  0.562500000       1.00000000       0.00000000       0.00000000       0.00000000    
  0.687500000       0.00000000       0.00000000       0.00000000       0.00000000    
  0.687500000       2.50000004E-02  0.140164688      -1.12997799E-03  0.140169248    
  0.687500000       7.50000030E-02  0.395988315      -1.38739566E-03  0.395990759    
  0.687500000      0.125000000      0.623825490       1.83642097E-03  0.623828173    
  0.687500000      0.175000012      0.820919454       7.07990211E-03  0.820949972    
  0.687500000      0.224999994      0.985831857       1.24605447E-02  0.985910594    
  0.687500000      0.275000006       1.11862659       1.62841249E-02   1.11874509    
  0.687500000      0.324999988       1.22066808       1.73829906E-02   1.22079182    
  0.687500000      0.375000000       1.29413939       1.53018888E-02   1.29422987    
  0.687500000      0.425000012       1.34142065       1.03183687E-02   1.34146035    
  0.687500000      0.475000024       1.36449432       3.32534313E-03   1.36449838    
  0.687500000      0.524999976       1.36447692      -4.37943684E-03   1.36448395    
  0.687500000      0.575000048       1.34136558      -1.13573857E-02   1.34141362    
  0.687500000      0.625000000       1.29404378      -1.63119044E-02   1.29414666    
  0.687500000      0.675000012       1.22052932      -1.83523912E-02   1.22066724    
  0.687500000      0.725000024       1.11844540      -1.72045566E-02   1.11857772    
  0.687500000      0.774999976      0.985615909      -1.33273965E-02  0.985706031    
  0.687500000      0.825000048      0.820684314      -7.89239258E-03  0.820722282    
  0.687500000      0.875000000      0.623600364      -2.59802258E-03  0.623605788    
  0.687500000      0.925000012      0.395816386       6.77692413E-04  0.395816982    
  0.687500000      0.975000024      0.140100896       7.89083773E-04  0.140103117    
  0.687500000       1.00000000       0.00000000       0.00000000       0.00000000    
  0.812500000       0.00000000       0.00000000       0.00000000       0.00000000    
  0.812500000       2.50000004E-02  0.135169357      -1.64618320E-03  0.135179386    
  0.812500000       7.50000030E-02  0.382128507      -3.76281585E-03  0.382147044    
  0.812500000      0.125000000      0.603648067      -3.64932790E-03  0.603659093    
  0.812500000      0.175000012      0.797876000      -1.87272439E-03  0.797878206    
  0.812500000      0.224999994      0.963512123       6.28485112E-04  0.963512361    
  0.812500000      0.275000006       1.09999335       2.92487070E-03   1.09999728    
  0.812500000      0.324999988       1.20749831       4.28691600E-03   1.20750594    
  0.812500000      0.375000000       1.28676939       4.32382198E-03   1.28677666    
  0.812500000      0.425000012       1.33881044       3.03921942E-03   1.33881390    
  0.812500000      0.475000024       1.36454237       7.96834123E-04   1.36454260    
  0.812500000      0.524999976       1.36450672      -1.78981968E-03   1.36450791    
  0.812500000      0.575000048       1.33870316      -4.01890278E-03   1.33870924    
  0.812500000      0.625000000       1.28659165      -5.27829817E-03   1.28660250    
  0.812500000      0.675000012       1.20725441      -5.20662265E-03   1.20726562    
  0.812500000      0.725000024       1.09969354      -3.80352419E-03   1.09970009    
  0.812500000      0.774999976      0.963173509      -1.46307272E-03  0.963174641    
  0.812500000      0.825000048      0.797526121       1.08207378E-03  0.797526836    
  0.812500000      0.875000000      0.603327394       2.90011289E-03  0.603334367    
  0.812500000      0.925000012      0.381890953       3.05840513E-03  0.381903201    
  0.812500000      0.975000024      0.135079727       1.30644476E-03  0.135086045    
  0.812500000       1.00000000       0.00000000       0.00000000       0.00000000    
  0.937500000       0.00000000       0.00000000       0.00000000       0.00000000    
  0.937500000       2.50000004E-02  0.132033229      -1.87387189E-03  0.132046521    
  0.937500000       7.50000030E-02  0.373177081      -4.83851694E-03  0.373208463    
  0.937500000      0.125000000      0.590026140      -6.20015757E-03  0.590058744    
  0.937500000      0.175000012      0.781252861      -6.14693994E-03  0.781277061    
  0.937500000      0.224999994      0.945771456      -5.16610406E-03  0.945785582    
  0.937500000      0.275000006       1.08285403      -3.77169251E-03   1.08286059    
  0.937500000      0.324999988       1.19217646      -2.40965001E-03   1.19217885    
  0.937500000      0.375000000       1.27376568      -1.37642678E-03   1.27376640    
  0.937500000      0.425000012       1.32787371      -7.75586464E-04   1.32787395    
  0.937500000      0.475000024       1.35480404      -5.23126218E-04   1.35480416    
  0.937500000      0.524999976       1.35475302      -3.99497250E-04   1.35475302    
  0.937500000      0.575000048       1.32772350      -1.36867617E-04   1.32772350    
  0.937500000      0.625000000       1.27352095       4.82812175E-04   1.27352107    
  0.937500000      0.675000012       1.19184732       1.54225738E-03   1.19184828    
  0.937500000      0.725000024       1.08245838       2.93592643E-03   1.08246231    
  0.937500000      0.774999976      0.945335627       4.36449563E-03  0.945345700    
  0.937500000      0.825000048      0.780813694       5.37932105E-03  0.780832231    
  0.937500000      0.875000000      0.589631796       5.46439551E-03  0.589657128    
  0.937500000      0.925000012      0.372889668       4.13974468E-03  0.372912645    
  0.937500000      0.975000024      0.131924510       1.53535826E-03  0.131933451    
  0.937500000       1.00000000       0.00000000       0.00000000       0.00000000    
   1.06250000       0.00000000       0.00000000       0.00000000       0.00000000    
   1.06250000       2.50000004E-02  0.129705355      -1.96958985E-03  0.129720315    
   1.06250000       7.50000030E-02  0.366463453      -5.30473702E-03  0.366501838    
   1.06250000      0.125000000      0.579525113      -7.33453315E-03  0.579571486    
   1.06250000      0.175000012      0.767841935      -8.09084903E-03  0.767884552    
   1.06250000      0.224999994      0.930483580      -7.85543956E-03  0.930516720    
   1.06250000      0.275000006       1.06670463      -6.93607796E-03   1.06672716    
   1.06250000      0.324999988       1.17598414      -5.62179182E-03   1.17599761    
   1.06250000      0.375000000       1.25802350      -4.14123014E-03   1.25803030    
   1.06250000      0.425000012       1.31270194      -2.63630319E-03   1.31270456    
   1.06250000      0.475000024       1.34000337      -1.15969405E-03   1.34000385    
   1.06250000      0.524999976       1.33994150       3.01759690E-04   1.33994150    
   1.06250000      0.575000048       1.31252003       1.78549392E-03   1.31252122    
   1.06250000      0.625000000       1.25772870       3.30426218E-03   1.25773311    
   1.06250000      0.675000012       1.17559171       4.80419490E-03   1.17560148    
   1.06250000      0.725000024       1.06623816       6.14122767E-03   1.06625581    
   1.06250000      0.774999976      0.929976583       7.08457595E-03  0.930003524    
   1.06250000      0.825000048      0.767337799       7.34390505E-03  0.767372966    
   1.06250000      0.875000000      0.579078436       6.61052298E-03  0.579116166    
   1.06250000      0.925000012      0.366141379       4.61085513E-03  0.366170406    
   1.06250000      0.975000024      0.129583895       1.63215259E-03  0.129594177    
   1.06250000       1.00000000       0.00000000       0.00000000       0.00000000    
   1.18750000       0.00000000       0.00000000       0.00000000       0.00000000    
   1.18750000       2.50000004E-02  0.127709314      -2.00654007E-03  0.127725080    
   1.18750000       7.50000030E-02  0.360721052      -5.49251540E-03  0.360762894    
   1.18750000      0.125000000      0.570433378      -7.80641148E-03  0.570486784    
   1.18750000      0.175000012      0.755939960      -8.92029703E-03  0.755992591    
   1.18750000      0.224999994      0.916406631      -9.02718958E-03  0.916451097    
   1.18750000      0.275000006       1.05110824      -8.33820365E-03   1.05114126    
   1.18750000      0.324999988       1.15945792      -7.06370268E-03   1.15947950    
   1.18750000      0.375000000       1.24102163      -5.39292023E-03   1.24103332    
   1.18750000      0.425000012       1.29551029      -3.47998552E-03   1.29551494    
   1.18750000      0.475000024       1.32275689      -1.44065835E-03   1.32275760    
   1.18750000      0.524999976       1.32268810       6.38652942E-04   1.32268822    
   1.18750000      0.575000048       1.29530656       2.68235314E-03   1.29530931    
   1.18750000      0.625000000       1.24069202       4.60419059E-03   1.24070060    
   1.18750000      0.675000012       1.15902162       6.28774986E-03   1.15903866    
   1.18750000      0.725000024       1.05059385       7.57714268E-03   1.05062127    
   1.18750000      0.774999976      0.915852070       8.28179810E-03  0.915889502    
   1.18750000      0.825000048      0.755393267       8.19063373E-03  0.755437672    
   1.18750000      0.875000000      0.569953144       7.09226122E-03  0.569997311    
   1.18750000      0.925000012      0.360377580       4.80286311E-03  0.360409588    
   1.18750000      0.975000024      0.127580374       1.67008559E-03  0.127591297    
   1.18750000       1.00000000       0.00000000       0.00000000       0.00000000    
   1.31250000       0.00000000       0.00000000       0.00000000       0.00000000    
   1.31250000       2.50000004E-02  0.125836894      -2.01877113E-03  0.125853091    
   1.31250000       7.50000030E-02  0.355369866      -5.55946119E-03  0.355413347    
   1.31250000      0.125000000      0.561936736      -7.98342377E-03  0.561993480    
   1.31250000      0.175000012      0.744701743      -9.24281031E-03  0.744759083    
   1.31250000      0.224999994      0.902886510      -9.49529000E-03  0.902936459    
   1.31250000      0.275000006       1.03579116      -8.90997052E-03   1.03582954    
   1.31250000      0.324999988       1.14281511      -7.66026042E-03   1.14284074    
   1.31250000      0.375000000       1.22347569      -5.91508020E-03   1.22349000    
   1.31250000      0.425000012       1.27741635      -3.83134419E-03   1.27742207    
   1.31250000      0.475000024       1.30440545      -1.55158387E-03   1.30440640    
   1.31250000      0.524999976       1.30433202       7.92999577E-04   1.30433226    
   1.31250000      0.575000048       1.27719879       3.07559152E-03   1.27720249    
   1.31250000      0.625000000       1.22312438       5.16484026E-03   1.22313535    
   1.31250000      0.675000012       1.14235163       6.91746362E-03   1.14237261    
   1.31250000      0.725000024       1.03524721       8.17556214E-03   1.03527951    
   1.31250000      0.774999976      0.902303338       8.76979344E-03  0.902345955    
   1.31250000      0.825000048      0.744130254       8.52640532E-03  0.744179130    
   1.31250000      0.875000000      0.561437726       7.27661606E-03  0.561484873    
   1.31250000      0.925000012      0.355014771       4.87280916E-03  0.355048180    
   1.31250000      0.975000024      0.125704035       1.68296858E-03  0.125715300    
   1.31250000       1.00000000       0.00000000       0.00000000       0.00000000    
   1.43750000       0.00000000       0.00000000       0.00000000       0.00000000    
   1.43750000       2.50000004E-02  0.124002241      -2.02143402E-03  0.124018721    
   1.43750000       7.50000030E-02  0.350157797      -5.57767600E-03  0.350202203    
   1.43750000      0.125000000      0.553667963      -8.03801045E-03  0.553726315    
   1.43750000      0.175000012      0.733731687      -9.35020857E-03  0.733791292    
   1.43750000      0.224999994      0.889602900      -9.65881161E-03  0.889655352    
   1.43750000      0.275000006       1.02060342      -9.11611412E-03   1.02064407    
   1.43750000      0.324999988       1.12613845      -7.87984859E-03   1.12616599    
   1.43750000      0.375000000       1.20571315      -6.10875478E-03   1.20572865    
   1.43750000      0.425000012       1.25894952      -3.96005204E-03   1.25895572    
   1.43750000      0.475000024       1.28559220      -1.58719032E-03   1.28559315    
   1.43750000      0.524999976       1.28551614       8.60554399E-04   1.28551638    
   1.43750000      0.575000048       1.25872421       3.23497597E-03   1.25872838    
   1.43750000      0.625000000       1.20535016       5.38614858E-03   1.20536220    
   1.43750000      0.675000012       1.12566066       7.16072833E-03   1.12568343    
   1.43750000      0.725000024       1.02004457       8.40099808E-03   1.02007914    
   1.43750000      0.774999976      0.889005780       8.94748047E-03  0.889050841    
   1.43750000      0.825000048      0.733148992       8.64314102E-03  0.733199894    
   1.43750000      0.875000000      0.553161263       7.33674597E-03  0.553209901    
   1.43750000      0.925000012      0.349798322       4.89343610E-03  0.349832535    
   1.43750000      0.975000024      0.123867944       1.68613391E-03  0.123879418    
   1.43750000       1.00000000       0.00000000       0.00000000       0.00000000    
   1.56250000       0.00000000       0.00000000       0.00000000       0.00000000    
   1.56250000       2.50000004E-02  0.122173302      -2.02108151E-03  0.122190014    
   1.56250000       7.50000030E-02  0.344983459      -5.57918474E-03  0.345028579    
   1.56250000      0.125000000      0.545472383      -8.04749504E-03  0.545531750    
   1.56250000      0.175000012      0.722856522      -9.37394984E-03  0.722917318    
   1.56250000      0.224999994      0.876409650      -9.70022846E-03  0.876463354    
   1.56250000      0.275000006       1.00547111      -9.17303935E-03   1.00551295    
   1.56250000      0.324999988       1.10945690      -7.94355664E-03   1.10948527    
   1.56250000      0.375000000       1.18787527      -6.16609212E-03   1.18789124    
   1.56250000      0.425000012       1.24034524      -3.99701297E-03   1.24035168    
   1.56250000      0.475000024       1.26660657      -1.59329618E-03   1.26660752    
   1.56250000      0.524999976       1.26652956       8.88781971E-04   1.26652992    
   1.56250000      0.575000048       1.24011707       3.29293497E-03   1.24012148    
   1.56250000      0.625000000       1.18750787       5.46235871E-03   1.18752038    
   1.56250000      0.675000012       1.10897446       7.24032708E-03   1.10899806    
   1.56250000      0.725000024       1.00490808       8.47064145E-03   1.00494373    
   1.56250000      0.774999976      0.875809550       8.99862498E-03  0.875855803    
   1.56250000      0.825000048      0.722272158       8.67327396E-03  0.722324252    
   1.56250000      0.875000000      0.544965923       7.34959636E-03  0.545015454    
   1.56250000      0.925000012      0.344625264       4.89632646E-03  0.344660044    
   1.56250000      0.975000024      0.122039840       1.68608676E-03  0.122051492    
   1.56250000       1.00000000       0.00000000       0.00000000       0.00000000    
   1.68750000       0.00000000       0.00000000       0.00000000       0.00000000    
   1.68750000       2.50000004E-02  0.120340928      -2.01991992E-03  0.120357879    
   1.68750000       7.50000030E-02  0.339811683      -5.57550928E-03  0.339857429    
   1.68750000      0.125000000      0.537291408      -8.04238208E-03  0.537351549    
   1.68750000      0.175000012      0.712006688      -9.37018078E-03  0.712068379    
   1.68750000      0.224999994      0.863245130      -9.70023870E-03  0.863299668    
   1.68750000      0.275000006      0.990360022      -9.17741284E-03  0.990402520    
   1.68750000      0.324999988       1.09277892      -7.95067847E-03   1.09280789    
   1.68750000      0.375000000       1.17001855      -6.17317157E-03   1.17003489    
   1.68750000      0.425000012       1.22170091      -4.00052499E-03   1.22170746    
   1.68750000      0.475000024       1.24756861      -1.59001851E-03   1.24756968    
   1.68750000      0.524999976       1.24749160       8.99701379E-04   1.24749196    
   1.68750000      0.575000048       1.22147298       3.30983358E-03   1.22147751    
   1.68750000      0.625000000       1.16965175       5.48181497E-03   1.16966462    
   1.68750000      0.675000012       1.09229851       7.25806132E-03   1.09232259    
   1.68750000      0.725000024      0.989799857       8.48306809E-03  0.989836216    
   1.68750000      0.774999976      0.862649024       9.00430419E-03  0.862695992    
   1.68750000      0.825000048      0.711427212       8.67334567E-03  0.711480081    
   1.68750000      0.875000000      0.536790371       7.34672090E-03  0.536840618    
   1.68750000      0.925000012      0.339458019       4.89358930E-03  0.339493275    
   1.68750000      0.975000024      0.120209619       1.68514939E-03  0.120221429    
   1.68750000       1.00000000       0.00000000       0.00000000       0.00000000    
   1.81250000       0.00000000       0.00000000       0.00000000       0.00000000    
   1.81250000       2.50000004E-02  0.118503869      -2.01886869E-03  0.118521065    
   1.81250000       7.50000030E-02  0.334633052      -5.57168387E-03  0.334679455    
   1.81250000      0.125000000      0.529106379      -8.03527609E-03  0.529167414    
   1.81250000      0.175000012      0.701157808      -9.36069153E-03  0.701220274    
   1.81250000      0.224999994      0.850085735      -9.68985073E-03  0.850140929    
   1.81250000      0.275000006      0.975255430      -9.16744955E-03  0.975298524    
   1.81250000      0.324999988       1.07610536      -7.94208236E-03   1.07613468    
   1.81250000      0.375000000       1.15216148      -6.16611633E-03   1.15217793    
   1.81250000      0.425000012       1.20305157      -3.99473310E-03   1.20305824    
   1.81250000      0.475000024       1.22852254      -1.58529473E-03   1.22852361    
   1.81250000      0.524999976       1.22844625       9.03271779E-04   1.22844660    
   1.81250000      0.575000048       1.20282602       3.31178540E-03   1.20283055    
   1.81250000      0.625000000       1.15179873       5.48164686E-03   1.15181172    
   1.81250000      0.675000012       1.07563066       7.25531857E-03   1.07565522    
   1.81250000      0.725000024      0.974702597       8.47773068E-03  0.974739492    
   1.81250000      0.774999976      0.849497914       8.99718143E-03  0.849545538    