 TITLE= "TESTPLOT" 
 VARIABLES="x","y","fx","fy","magf" 
 ZONE T="1", I=          81 , J=          21
   0.00000000       0.00000000       1.00000000       0.00000000       1.00000000    
   0.00000000       2.50000004E-02   1.00000000       0.00000000       1.00000000    
   0.00000000       7.50000030E-02   1.00000000       0.00000000       1.00000000    
   0.00000000      0.125000000       1.00000000       0.00000000       1.00000000    
   0.00000000      0.175000012       1.00000000       0.00000000       1.00000000    
   0.00000000      0.224999994       1.00000000       0.00000000       1.00000000    
   0.00000000      0.275000006       1.00000000       0.00000000       1.00000000    
   0.00000000      0.324999988       1.00000000       0.00000000       1.00000000    
   0.00000000      0.375000000       1.00000000       0.00000000       1.00000000    
   0.00000000      0.425000012       1.00000000       0.00000000       1.00000000    
   0.00000000      0.475000024       1.00000000       0.00000000       1.00000000    
   0.00000000      0.524999976       1.00000000       0.00000000       1.00000000    
   0.00000000      0.575000048       1.00000000       0.00000000       1.00000000    
   0.00000000      0.625000000       1.00000000       0.00000000       1.00000000    
   0.00000000      0.675000012       1.00000000       0.00000000       1.00000000    
   0.00000000      0.725000024       1.00000000       0.00000000       1.00000000    
   0.00000000      0.774999976       1.00000000       0.00000000       1.00000000    
   0.00000000      0.825000048       1.00000000       0.00000000       1.00000000    
   0.00000000      0.875000000       1.00000000       0.00000000       1.00000000    
   0.00000000      0.925000012       1.00000000       0.00000000       1.00000000    
   0.00000000      0.975000024       1.00000000       0.00000000       1.00000000    
   0.00000000       1.00000000       1.00000000       0.00000000       1.00000000    
   6.25000000E-02   0.00000000      0.500000000       0.00000000      0.500000000    
   6.25000000E-02   2.50000004E-02  0.716381252      0.111083701      0.724942505    
   6.25000000E-02   7.50000030E-02  0.919971049      0.251637042      0.953765154    
   6.25000000E-02  0.125000000       1.01072907      0.274277180       1.04728281    
   6.25000000E-02  0.175000012       1.04559970      0.246671468       1.07430232    
   6.25000000E-02  0.224999994       1.05378771      0.201844156       1.07294440    
   6.25000000E-02  0.275000006       1.05049264      0.155060217       1.06187499    
   6.25000000E-02  0.324999988       1.04348707      0.112396784       1.04952288    
   6.25000000E-02  0.375000000       1.03655839       7.53073096E-02   1.03929043    
   6.25000000E-02  0.425000012       1.03141141       4.30481844E-02   1.03230941    
   6.25000000E-02  0.475000024       1.02872992       1.39201125E-02   1.02882409    
   6.25000000E-02  0.524999976       1.02873600      -1.41377700E-02   1.02883315    
   6.25000000E-02  0.575000048       1.03142977      -4.32757437E-02   1.03233731    
   6.25000000E-02  0.625000000       1.03658962      -7.55550340E-02   1.03933954    
   6.25000000E-02  0.675000012       1.04353273     -0.112674996       1.04959810    
   6.25000000E-02  0.725000024       1.05055404     -0.155380502       1.06198251    
   6.25000000E-02  0.774999976       1.05386519     -0.202219218       1.07309103    
   6.25000000E-02  0.825000048       1.04569221     -0.247113913       1.07449412    
   6.25000000E-02  0.875000000       1.01083040     -0.274795055       1.04751635    
   6.25000000E-02  0.925000012      0.920067906     -0.252220124      0.954012513    
   6.25000000E-02  0.975000024      0.716449380     -0.111388482      0.725056648    
   6.25000000E-02   1.00000000      0.500000000       0.00000000      0.500000000    
  0.187500000       0.00000000       0.00000000       0.00000000       0.00000000    
  0.187500000       2.50000004E-02  0.338617802       3.52728814E-02  0.340449989    
  0.187500000       7.50000030E-02  0.729760766      0.112049595      0.738312840    
  0.187500000      0.125000000      0.947871089      0.180422708      0.964889646    
  0.187500000      0.175000012       1.06121469      0.216721892       1.08311820    
  0.187500000      0.224999994       1.11299038      0.221422315       1.13480186    
  0.187500000      0.275000006       1.13063562      0.202269658       1.14858603    
  0.187500000      0.324999988       1.13127792      0.167561889       1.14362001    
  0.187500000      0.375000000       1.12528956      0.123845398       1.13208401    
  0.187500000      0.425000012       1.11868525       7.55057782E-02   1.12123048    
  0.187500000      0.475000024       1.11469603       2.51408815E-02   1.11497951    
  0.187500000      0.524999976       1.11471462      -2.57760230E-02   1.11501253    
  0.187500000      0.575000048       1.11874008      -7.61510283E-02   1.12132883    
  0.187500000      0.625000000       1.12537932     -0.124509379       1.13224614    
  0.187500000      0.675000012       1.13140178     -0.168249786       1.14384353    
  0.187500000      0.725000024       1.13079095     -0.202982858       1.14886475    
  0.187500000      0.774999976       1.11317086     -0.222157419       1.13512254    
  0.187500000      0.825000048       1.06141067     -0.217469662       1.08346009    
  0.187500000      0.875000000      0.948066235     -0.181168169      0.965220928    
  0.187500000      0.925000012      0.729929626     -0.112766117      0.738588810    
  0.187500000      0.975000024      0.338724971      -3.56194787E-02  0.340592653    
  0.187500000       1.00000000       0.00000000       0.00000000       0.00000000    
  0.312500000       0.00000000       0.00000000       0.00000000       0.00000000    
  0.312500000       2.50000004E-02  0.212846741       1.02653168E-02  0.213094145    
  0.312500000       7.50000030E-02  0.558427811       4.24224213E-02  0.560036838    
  0.312500000      0.125000000      0.813175201       8.61921608E-02  0.817730367    
  0.312500000      0.175000012      0.987242579      0.123100884      0.994887829    
  0.312500000      0.224999994       1.09790444      0.143768579       1.10727751    
  0.312500000      0.275000006       1.16286230      0.145811945       1.17196834    
  0.312500000      0.324999988       1.19741368      0.130922794       1.20454979    
  0.312500000      0.375000000       1.21351850      0.102641925       1.21785164    
  0.312500000      0.425000012       1.21974993       6.50130808E-02   1.22148132    
  0.312500000      0.475000024       1.22156096       2.19553672E-02   1.22175825    
  0.312500000      0.524999976       1.22158527      -2.28729062E-02   1.22179937    
  0.312500000      0.575000048       1.21982002      -6.59295917E-02   1.22160041    
  0.312500000      0.625000000       1.21362853     -0.103554651       1.21803844    
  0.312500000      0.675000012       1.19755578     -0.131827220       1.20478976    
  0.312500000      0.725000024       1.16302586     -0.146700770       1.17224157    
  0.312500000      0.774999976       1.09807348     -0.144631594       1.10755754    
  0.312500000      0.825000048      0.987401485     -0.123927251      0.995148063    
  0.312500000      0.875000000      0.813308895      -8.69728923E-02  0.817946017    
  0.312500000      0.925000012      0.558523417      -4.31457385E-02  0.560187459    
  0.312500000      0.975000024      0.212898970      -1.06106214E-02  0.213163212    
  0.312500000       1.00000000       0.00000000       0.00000000       0.00000000    
  0.437500000       0.00000000       0.00000000       0.00000000       0.00000000    
  0.437500000       2.50000004E-02  0.168328926       2.77174055E-03  0.168351740    
  0.437500000       7.50000030E-02  0.466673970       1.52155515E-02  0.466921955    
  0.437500000      0.125000000      0.715122700       3.70991081E-02  0.716084361    
  0.437500000      0.175000012      0.910229325       5.99564165E-02  0.912201822    
  0.437500000      0.224999994       1.05519640       7.69213736E-02   1.05799639    
  0.437500000      0.275000006       1.15722680       8.39623511E-02   1.16026878    
  0.437500000      0.324999988       1.22510624       7.97774792E-02   1.22770095    
  0.437500000      0.375000000       1.26741183       6.51733428E-02   1.26908636    
  0.437500000      0.425000012       1.29133892       4.23583947E-02   1.29203343    
  0.437500000      0.475000024       1.30199432       1.43560469E-02   1.30207348    
  0.437500000      0.524999976       1.30201161      -1.54107455E-02   1.30210280    
  0.437500000      0.575000048       1.29138625      -4.34020534E-02   1.29211545    
  0.437500000      0.625000000       1.26748145      -6.61954358E-02   1.26920891    
  0.437500000      0.675000012       1.22518635      -8.07675421E-02   1.22784567    
  0.437500000      0.725000024       1.15730643      -8.49101394E-02   1.16041720    
  0.437500000      0.774999976       1.05526137      -7.78177828E-02   1.05812669    
  0.437500000      0.825000048      0.910269976      -6.07955530E-02  0.912297904    
  0.437500000      0.875000000      0.715137839      -3.78799215E-02  0.716140389    
  0.437500000      0.925000012      0.466672719      -1.59346033E-02  0.466944695    
  0.437500000      0.975000024      0.168334395      -3.11480160E-03  0.168363214    
  0.437500000       1.00000000       0.00000000       0.00000000       0.00000000    
  0.562500000       0.00000000       0.00000000       0.00000000       0.00000000    
  0.562500000       2.50000004E-02  0.149398178       3.02404369E-05  0.149398178    
  0.562500000       7.50000030E-02  0.420371771       3.77154676E-03  0.420388699    
  0.562500000      0.125000000      0.657185435       1.33143896E-02  0.657320261    
  0.562500000      0.175000012      0.855914176       2.50979513E-02  0.856282055    
  0.562500000      0.224999994       1.01575470       3.53803709E-02   1.01637065    
  0.562500000      0.275000006       1.13872218       4.12654132E-02   1.13946962    
  0.562500000      0.324999988       1.22875440       4.11418676E-02   1.22944295    
  0.562500000      0.375000000       1.29062080       3.47522795E-02   1.29108858    
  0.562500000      0.425000012       1.32888198       2.30155699E-02   1.32908130    
  0.562500000      0.475000024       1.34706092       7.72325462E-03   1.34708309    
  0.562500000      0.524999976       1.34706235      -8.80787149E-03   1.34709120    
  0.562500000      0.575000048       1.32888091      -2.40858346E-02   1.32909918    
  0.562500000      0.625000000       1.29061186      -3.57932486E-02   1.29110813    
  0.562500000      0.675000012       1.22872853      -4.21410277E-02   1.22945094    
  0.562500000      0.725000024       1.13867235      -4.22132090E-02   1.13945448    
  0.562500000      0.774999976       1.01567805      -3.62703204E-02   1.01632547    
  0.562500000      0.825000048      0.855812669      -2.59282067E-02  0.856205344    
  0.562500000      0.875000000      0.657073796      -1.40875746E-02  0.657224774    
  0.562500000      0.925000012      0.420278460      -4.48651705E-03  0.420302421    
  0.562500000      0.975000024      0.149365500      -3.72307375E-04  0.149365962    
  0.562500000       1.00000000       0.00000000       0.00000000       0.00000000    
  0.687500000       0.00000000       0.00000000       0.00000000       0.00000000    
  0.687500000       2.50000004E-02  0.140221000      -1.12960953E-03  0.140225545    
  0.687500000       7.50000030E-02  0.396070659      -1.38743245E-03  0.396073103    
  0.687500000      0.125000000      0.623900771       1.83501001E-03  0.623903453    
  0.687500000      0.175000012      0.820984364       7.07804132E-03  0.821014881    
  0.687500000      0.224999994      0.985890508       1.24587435E-02  0.985969245    
  0.687500000      0.275000006       1.11868310       1.62824634E-02   1.11880159    
  0.687500000      0.324999988       1.22072506       1.73818544E-02   1.22084880    
  0.687500000      0.375000000       1.29419637       1.53015880E-02   1.29428685    
  0.687500000      0.425000012       1.34147716       1.03187691E-02   1.34151685    
  0.687500000      0.475000024       1.36455107       3.32583836E-03   1.36455512    
  0.687500000      0.524999976       1.36453390      -4.37896233E-03   1.36454093    
  0.687500000      0.575000048       1.34142041      -1.13569349E-02   1.34146845    
  0.687500000      0.625000000       1.29409838      -1.63112022E-02   1.29420114    
  0.687500000      0.675000012       1.22058380      -1.83508359E-02   1.22072172    
  0.687500000      0.725000024       1.11849976      -1.72020011E-02   1.11863196    
  0.687500000      0.774999976      0.985672235      -1.33241983E-02  0.985762298    
  0.687500000      0.825000048      0.820747495      -7.88930710E-03  0.820785403    
  0.687500000      0.875000000      0.623674631      -2.59560533E-03  0.623680055    
  0.687500000      0.925000012      0.395898104       6.78961282E-04  0.395898700    
  0.687500000      0.975000024      0.140157402       7.89332436E-04  0.140159622    
  0.687500000       1.00000000       0.00000000       0.00000000       0.00000000    
  0.812500000       0.00000000       0.00000000       0.00000000       0.00000000    
  0.812500000       2.50000004E-02  0.135236487      -1.64575374E-03  0.135246500    
  0.812500000       7.50000030E-02  0.382226139      -3.76269734E-03  0.382244676    
  0.812500000      0.125000000      0.603737235      -3.65039869E-03  0.603748262    
  0.812500000      0.175000012      0.797952414      -1.87421800E-03  0.797954619    
  0.812500000      0.224999994      0.963580847       6.27058733E-04  0.963581085    
  0.812500000      0.275000006       1.10005951       2.92328978E-03   1.10006344    
  0.812500000      0.324999988       1.20756364       4.28549945E-03   1.20757127    
  0.812500000      0.375000000       1.28683496       4.32315702E-03   1.28684223    
  0.812500000      0.425000012       1.33887684       3.03898985E-03   1.33888030    
  0.812500000      0.475000024       1.36460900       7.96951819E-04   1.36460924    
  0.812500000      0.524999976       1.36457360      -1.78900093E-03   1.36457479    
  0.812500000      0.575000048       1.33876872      -4.01760451E-03   1.33877468    
  0.812500000      0.625000000       1.28665555      -5.27706183E-03   1.28666639    
  0.812500000      0.675000012       1.20731807      -5.20526990E-03   1.20732927    
  0.812500000      0.725000024       1.09975791      -3.80138308E-03   1.09976447    
  0.812500000      0.774999976      0.963240504      -1.46006991E-03  0.963241577    
  0.812500000      0.825000048      0.797601104       1.08529825E-03  0.797601879    
  0.812500000      0.875000000      0.603415728       2.90269102E-03  0.603422701    
  0.812500000      0.925000012      0.381987989       3.05973017E-03  0.382000238    
  0.812500000      0.975000024      0.135146916       1.30674860E-03  0.135153234    
  0.812500000       1.00000000       0.00000000       0.00000000       0.00000000    
  0.937500000       0.00000000       0.00000000       0.00000000       0.00000000    
  0.937500000       2.50000004E-02  0.132110834      -1.87363278E-03  0.132124126    
  0.937500000       7.50000030E-02  0.373289406      -4.83895559E-03  0.373320758    
  0.937500000      0.125000000      0.590128422      -6.20203884E-03  0.590161026    
  0.937500000      0.175000012      0.781340420      -6.14949223E-03  0.781364560    
  0.937500000      0.224999994      0.945850372      -5.16869826E-03  0.945864499    
  0.937500000      0.275000006       1.08292997      -3.77398939E-03   1.08293653    
  0.937500000      0.324999988       1.19225097      -2.41146400E-03   1.19225347    
  0.937500000      0.375000000       1.27384114      -1.37802376E-03   1.27384186    
  0.937500000      0.425000012       1.32795036      -7.76921050E-04   1.32795060    
  0.937500000      0.475000024       1.35487962      -5.23474126E-04   1.35487974    
  0.937500000      0.524999976       1.35482883      -3.98815493E-04   1.35482883    
  0.937500000      0.575000048       1.32779884      -1.35319453E-04   1.32779884    
  0.937500000      0.625000000       1.27359509       4.85163386E-04   1.27359521    
  0.937500000      0.675000012       1.19192111       1.54515821E-03   1.19192219    
  0.937500000      0.725000024       1.08253312       2.93919817E-03   1.08253706    
  0.937500000      0.774999976      0.945413113       4.36793081E-03  0.945423186    
  0.937500000      0.825000048      0.780899704       5.38269244E-03  0.780918241    
  0.937500000      0.875000000      0.589733064       5.46716899E-03  0.589758396    
  0.937500000      0.925000012      0.373000979       4.14112350E-03  0.373023957    
  0.937500000      0.975000024      0.132001400       1.53560366E-03  0.132010326    
  0.937500000       1.00000000       0.00000000       0.00000000       0.00000000    
   1.06250000       0.00000000       0.00000000       0.00000000       0.00000000    
   1.06250000       2.50000004E-02  0.129792184      -1.96961919E-03  0.129807130    
   1.06250000       7.50000030E-02  0.366589308      -5.30550163E-03  0.366627693    
   1.06250000      0.125000000      0.579639852      -7.33625982E-03  0.579686284    
   1.06250000      0.175000012      0.767940104      -8.09284300E-03  0.767982721    
   1.06250000      0.224999994      0.930572629      -7.85727985E-03  0.930605829    
   1.06250000      0.275000006       1.06679010      -6.93735853E-03   1.06681263    
   1.06250000      0.324999988       1.17606902      -5.62258624E-03   1.17608249    
   1.06250000      0.375000000       1.25810933      -4.14179871E-03   1.25811613    
   1.06250000      0.425000012       1.31278872      -2.63635581E-03   1.31279135    
   1.06250000      0.475000024       1.34008968      -1.15928682E-03   1.34009016    
   1.06250000      0.524999976       1.34002757       3.02206434E-04   1.34002757    
   1.06250000      0.575000048       1.31260538       1.78592489E-03   1.31260657    
   1.06250000      0.625000000       1.25781322       3.30505194E-03   1.25781763    
   1.06250000      0.675000012       1.17567587       4.80547268E-03   1.17568564    
   1.06250000      0.725000024       1.06632257       6.14321884E-03   1.06634033    
   1.06250000      0.774999976      0.930063903       7.08769914E-03  0.930090904    
   1.06250000      0.825000048      0.767434657       7.34762754E-03  0.767469823    
   1.06250000      0.875000000      0.579192400       6.61385711E-03  0.579230130    
   1.06250000      0.925000012      0.366266847       4.61279321E-03  0.366295874    
   1.06250000      0.975000024      0.129670307       1.63263164E-03  0.129680589    
   1.06250000       1.00000000       0.00000000       0.00000000       0.00000000    
   1.18750000       0.00000000       0.00000000       0.00000000       0.00000000    
   1.18750000       2.50000004E-02  0.127806276      -2.00624228E-03  0.127822027    
   1.18750000       7.50000030E-02  0.360861421      -5.49271423E-03  0.360903233    
   1.18750000      0.125000000      0.570561528      -7.80774606E-03  0.570614934    
   1.18750000      0.175000012      0.756049931      -8.92200042E-03  0.756102622    
   1.18750000      0.224999994      0.916506052      -9.02859494E-03  0.916550517    
   1.18750000      0.275000006       1.05120397      -8.33912380E-03   1.05123699    
   1.18750000      0.324999988       1.15955329      -7.06431642E-03   1.15957487    
   1.18750000      0.375000000       1.24111748      -5.39323688E-03   1.24112916    
   1.18750000      0.425000012       1.29560685      -3.48012894E-03   1.29561150    
   1.18750000      0.475000024       1.32285357      -1.44071248E-03   1.32285440    
   1.18750000      0.524999976       1.32278419       6.38862490E-04   1.32278430    
   1.18750000      0.575000048       1.29540157       2.68306397E-03   1.29540431    
   1.18750000      0.625000000       1.24078655       4.60529979E-03   1.24079514    
   1.18750000      0.675000012       1.15911603       6.28926326E-03   1.15913308    
   1.18750000      0.725000024       1.05068791       7.57937692E-03   1.05071533    
   1.18750000      0.774999976      0.915949583       8.28475412E-03  0.915987074    
   1.18750000      0.825000048      0.755501390       8.19370989E-03  0.755545795    
   1.18750000      0.875000000      0.570079803       7.09482934E-03  0.570123971    
   1.18750000      0.925000012      0.360516608       4.80433274E-03  0.360548615    
   1.18750000      0.975000024      0.127676234       1.67043111E-03  0.127687156    
   1.18750000       1.00000000       0.00000000       0.00000000       0.00000000    
   1.31250000       0.00000000       0.00000000       0.00000000       0.00000000    
   1.31250000       2.50000004E-02  0.125943586      -2.01877276E-03  0.125959769    
   1.31250000       7.50000030E-02  0.355524927      -5.56003628E-03  0.355568409    
   1.31250000      0.125000000      0.562078536      -7.98512343E-03  0.562135279    
   1.31250000      0.175000012      0.744823635      -9.24527645E-03  0.744881034    
   1.31250000      0.224999994      0.902996361      -9.49761644E-03  0.903046310    
   1.31250000      0.275000006       1.03589654      -8.91158450E-03   1.03593481    
   1.31250000      0.324999988       1.14291990      -7.66125135E-03   1.14294553    
   1.31250000      0.375000000       1.22358084      -5.91532141E-03   1.22359514    
   1.31250000      0.425000012       1.27752209      -3.83095117E-03   1.27752781    
   1.31250000      0.475000024       1.30451131      -1.55112264E-03   1.30451226    
   1.31250000      0.524999976       1.30443776       7.93489744E-04   1.30443799    
   1.31250000      0.575000048       1.27730322       3.07621295E-03   1.27730691    
   1.31250000      0.625000000       1.22322845       5.16555738E-03   1.22323930    
   1.31250000      0.675000012       1.14245558       6.91873766E-03   1.14247656    
   1.31250000      0.725000024       1.03535128       8.17774888E-03   1.03538358    
   1.31250000      0.774999976      0.902411401       8.77249986E-03  0.902454019    
   1.31250000      0.825000048      0.744250119       8.52912571E-03  0.744298935    
   1.31250000      0.875000000      0.561578095       7.27902632E-03  0.561625302    
   1.31250000      0.925000012      0.355168700       4.87422897E-03  0.355202138    
   1.31250000      0.975000024      0.125810266       1.68330024E-03  0.125821516    
   1.31250000       1.00000000       0.00000000       0.00000000       0.00000000    
   1.43750000       0.00000000       0.00000000       0.00000000       0.00000000    
   1.43750000       2.50000004E-02  0.124118708      -2.02127662E-03  0.124135166    
   1.43750000       7.50000030E-02  0.350326836      -5.57801872E-03  0.350371242    
   1.43750000      0.125000000      0.553822398      -8.03949311E-03  0.553880751    
   1.43750000      0.175000012      0.733863771      -9.35214199E-03  0.733923376    
   1.43750000      0.224999994      0.889721751      -9.66053270E-03  0.889774203    
   1.43750000      0.275000006       1.02071726      -9.11743194E-03   1.02075791    
   1.43750000      0.324999988       1.12625170      -7.88077712E-03   1.12627923    
   1.43750000      0.375000000       1.20582688      -6.10937737E-03   1.20584238    
   1.43750000      0.425000012       1.25906372      -3.96026531E-03   1.25906992    
   1.43750000      0.475000024       1.28570700      -1.58691558E-03   1.28570795    
   1.43750000      0.524999976       1.28563094       8.61322565E-04   1.28563118    
   1.43750000      0.575000048       1.25883770       3.23616224E-03   1.25884187    
   1.43750000      0.625000000       1.20546317       5.38756140E-03   1.20547521    
   1.43750000      0.675000012       1.12577319       7.16237072E-03   1.12579596    
   1.43750000      0.725000024       1.02015758       8.40302464E-03   1.02019215    
   1.43750000      0.774999976      0.889123261       8.94990191E-03  0.889168322    
   1.43750000      0.825000048      0.733279407       8.64571892E-03  0.733330369    
   1.43750000      0.875000000      0.553315043       7.33903889E-03  0.553363681    
   1.43750000      0.925000012      0.349967152       4.89472505E-03  0.350001395    
   1.43750000      0.975000024      0.123984717       1.68641936E-03  0.123996191    
   1.43750000       1.00000000       0.00000000       0.00000000       0.00000000    
   1.56250000       0.00000000       0.00000000       0.00000000       0.00000000    
   1.56250000       2.50000004E-02  0.122299358      -2.02099956E-03  0.122316055    
   1.56250000       7.50000030E-02  0.345166028      -5.57942130E-03  0.345211118    
   1.56250000      0.125000000      0.545638919      -8.04848503E-03  0.545698285    
   1.56250000      0.175000012      0.722998738      -9.37561970E-03  0.723059535    
   1.56250000      0.224999994      0.876537681      -9.70203523E-03  0.876591384    
   1.56250000      0.275000006       1.00559402      -9.17441957E-03   1.00563586    
   1.56250000      0.324999988       1.10957932      -7.94451497E-03   1.10960770    
   1.56250000      0.375000000       1.18799829      -6.16658432E-03   1.18801427    
   1.56250000      0.425000012       1.24046874      -3.99707630E-03   1.24047518    
   1.56250000      0.475000024       1.26673055      -1.59302168E-03   1.26673150    
   1.56250000      0.524999976       1.26665342       8.89495946E-04   1.26665378    
   1.56250000      0.575000048       1.24024022       3.29407584E-03   1.24024463    
   1.56250000      0.625000000       1.18763030       5.46393916E-03   1.18764281    
   1.56250000      0.675000012       1.10909605       7.24252639E-03   1.10911965    
   1.56250000      0.725000024       1.00502992       8.47330410E-03   1.00506556    
   1.56250000      0.774999976      0.875936210       9.00132302E-03  0.875982463    
   1.56250000      0.825000048      0.722413003       8.67582392E-03  0.722465098    
   1.56250000      0.875000000      0.545131922       7.35144410E-03  0.545181513    
   1.56250000      0.925000012      0.344807565       4.89706406E-03  0.344842345    
   1.56250000      0.975000024      0.122166097       1.68621412E-03  0.122177735    
   1.56250000       1.00000000       0.00000000       0.00000000       0.00000000    
   1.68750000       0.00000000       0.00000000       0.00000000       0.00000000    
   1.68750000       2.50000004E-02  0.120475888      -2.01964378E-03  0.120492816    
   1.68750000       7.50000030E-02  0.340007484      -5.57559915E-03  0.340053201    
   1.68750000      0.125000000      0.537470222      -8.04371946E-03  0.537530422    
   1.68750000      0.175000012      0.712159753      -9.37238522E-03  0.712221444    
   1.68750000      0.224999994      0.863382816      -9.70241614E-03  0.863437295    
   1.68750000      0.275000006      0.990492344      -9.17902030E-03  0.990534902    
   1.68750000      0.324999988       1.09291101      -7.95184635E-03   1.09293985    
   1.68750000      0.375000000       1.17015123      -6.17378950E-03   1.17016757    
   1.68750000      0.425000012       1.22183454      -4.00055433E-03   1.22184110    
   1.68750000      0.475000024       1.24770212      -1.58962631E-03   1.24770308    
   1.68750000      0.524999976       1.24762535       9.00666113E-04   1.24762571    
   1.68750000      0.575000048       1.22160614       3.31130298E-03   1.22161055    
   1.68750000      0.625000000       1.16978383       5.48358960E-03   1.16979671    
   1.68750000      0.675000012       1.09242940       7.26038311E-03   1.09245360    
   1.68750000      0.725000024      0.989931107       8.48599523E-03  0.989967465    
   1.68750000      0.774999976      0.862785459       9.00744088E-03  0.862832487    
   1.68750000      0.825000048      0.711579084       8.67623463E-03  0.711631954    
   1.68750000      0.875000000      0.536968470       7.34899566E-03  0.537018776    
   1.68750000      0.925000012      0.339653671       4.89474414E-03  0.339688957    
   1.68750000      0.975000024      0.120344907       1.68534520E-03  0.120356709    
   1.68750000       1.00000000       0.00000000       0.00000000       0.00000000    
   1.81250000       0.00000000       0.00000000       0.00000000       0.00000000    
   1.81250000       2.50000004E-02  0.118649155      -2.01865681E-03  0.118666321    
   1.81250000       7.50000030E-02  0.334843189      -5.57199121E-03  0.334889531    
   1.81250000      0.125000000      0.529298425      -8.03691335E-03  0.529359400    
   1.81250000      0.175000012      0.701321959      -9.36306454E-03  0.701384485    
   1.81250000      0.224999994      0.850233555      -9.69202723E-03  0.850288808    
   1.81250000      0.275000006      0.975397468      -9.16909613E-03  0.975440562    
   1.81250000      0.324999988       1.07624722      -7.94331729E-03   1.07627654    
   1.81250000      0.375000000       1.15230417      -6.16666302E-03   1.15232062    
   1.81250000      0.425000012       1.20319533      -3.99456406E-03   1.20320201    
   1.81250000      0.475000024       1.22866583      -1.58475584E-03   1.22866690    
   1.81250000      0.524999976       1.22859013       9.04284068E-04   1.22859049    
   1.81250000      0.575000048       1.20296931       3.31328949E-03   1.20297384    
   1.81250000      0.625000000       1.15194082       5.48334979E-03   1.15195394    
   1.81250000      0.675000012       1.07577133       7.25746620E-03   1.07579577    
   1.81250000      0.725000024      0.974843144       8.48052744E-03  0.974880040    
   1.81250000      0.774999976      0.849644065       9.00028832E-03  0.849691749    