 TITLE= "TESTPLOT" 
 VARIABLES="x","y","fx","fy","magf" 
 ZONE T="1", I=          81 , J=          21
   0.00000000       0.00000000       1.00000000       0.00000000       1.00000000    
   0.00000000       2.50000004E-02   1.00000000       0.00000000       1.00000000    
   0.00000000       7.50000030E-02   1.00000000       0.00000000       1.00000000    
   0.00000000      0.125000000       1.00000000       0.00000000       1.00000000    
   0.00000000      0.175000012       1.00000000       0.00000000       1.00000000    
   0.00000000      0.224999994       1.00000000       0.00000000       1.00000000    
   0.00000000      0.275000006       1.00000000       0.00000000       1.00000000    
   0.00000000      0.324999988       1.00000000       0.00000000       1.00000000    
   0.00000000      0.375000000       1.00000000       0.00000000       1.00000000    
   0.00000000      0.425000012       1.00000000       0.00000000       1.00000000    
   0.00000000      0.475000024       1.00000000       0.00000000       1.00000000    
   0.00000000      0.524999976       1.00000000       0.00000000       1.00000000    
   0.00000000      0.575000048       1.00000000       0.00000000       1.00000000    
   0.00000000      0.625000000       1.00000000       0.00000000       1.00000000    
   0.00000000      0.675000012       1.00000000       0.00000000       1.00000000    
   0.00000000      0.725000024       1.00000000       0.00000000       1.00000000    
   0.00000000      0.774999976       1.00000000       0.00000000       1.00000000    
   0.00000000      0.825000048       1.00000000       0.00000000       1.00000000    
   0.00000000      0.875000000       1.00000000       0.00000000       1.00000000    
   0.00000000      0.925000012       1.00000000       0.00000000       1.00000000    
   0.00000000      0.975000024       1.00000000       0.00000000       1.00000000    
   0.00000000       1.00000000       1.00000000       0.00000000       1.00000000    
   6.25000000E-02   0.00000000      0.500000000       0.00000000      0.500000000    
   6.25000000E-02   2.50000004E-02  0.716381609      0.111084111      0.724942923    
   6.25000000E-02   7.50000030E-02  0.919972420      0.251637846      0.953766644    
   6.25000000E-02  0.125000000       1.01073039      0.274277925       1.04728425    
   6.25000000E-02  0.175000012       1.04560161      0.246671885       1.07430434    
   6.25000000E-02  0.224999994       1.05378962      0.201844662       1.07294631    
   6.25000000E-02  0.275000006       1.05049419      0.155061305       1.06187665    
   6.25000000E-02  0.324999988       1.04348886      0.112397954       1.04952478    
   6.25000000E-02  0.375000000       1.03656030       7.53081515E-02   1.03929234    
   6.25000000E-02  0.425000012       1.03141332       4.30485681E-02   1.03231132    
   6.25000000E-02  0.475000024       1.02873182       1.39201116E-02   1.02882600    
   6.25000000E-02  0.524999976       1.02873850      -1.41383586E-02   1.02883565    
   6.25000000E-02  0.575000048       1.03143167      -4.32762876E-02   1.03233922    
   6.25000000E-02  0.625000000       1.03659129      -7.55548924E-02   1.03934121    
   6.25000000E-02  0.675000012       1.04353476     -0.112674795       1.04960012    
   6.25000000E-02  0.725000024       1.05055690     -0.155380949       1.06198537    
   6.25000000E-02  0.774999976       1.05386817     -0.202220201       1.07309413    
   6.25000000E-02  0.825000048       1.04569519     -0.247114763       1.07449710    
   6.25000000E-02  0.875000000       1.01083279     -0.274795830       1.04751885    
   6.25000000E-02  0.925000012      0.920070291     -0.252220720      0.954015017    
   6.25000000E-02  0.975000024      0.716451168     -0.111388639      0.725058377    
   6.25000000E-02   1.00000000      0.500000000       0.00000000      0.500000000    
  0.187500000       0.00000000       0.00000000       0.00000000       0.00000000    
  0.187500000       2.50000004E-02  0.338619322       3.52738053E-02  0.340451598    
  0.187500000       7.50000030E-02  0.729766250      0.112051740      0.738318622    
  0.187500000      0.125000000      0.947877645      0.180424958      0.964896441    
  0.187500000      0.175000012       1.06122136      0.216723591       1.08312500    
  0.187500000      0.224999994       1.11299694      0.221423805       1.13480866    
  0.187500000      0.275000006       1.13064194      0.202270865       1.14859247    
  0.187500000      0.324999988       1.13128400      0.167562917       1.14362621    
  0.187500000      0.375000000       1.12529576      0.123846710       1.13209033    
  0.187500000      0.425000012       1.11869168       7.55067915E-02   1.12123692    
  0.187500000      0.475000024       1.11470199       2.51412913E-02   1.11498547    
  0.187500000      0.524999976       1.11472106      -2.57758740E-02   1.11501896    
  0.187500000      0.575000048       1.11874628      -7.61506408E-02   1.12133503    
  0.187500000      0.625000000       1.12538552     -0.124508493       1.13225210    
  0.187500000      0.675000012       1.13140893     -0.168248832       1.14385045    
  0.187500000      0.725000024       1.13079882     -0.202982396       1.14887238    
  0.187500000      0.774999976       1.11317873     -0.222157389       1.13513029    
  0.187500000      0.825000048       1.06141877     -0.217469990       1.08346808    
  0.187500000      0.875000000      0.948073268     -0.181169033      0.965228021    
  0.187500000      0.925000012      0.729935765     -0.112767324      0.738595068    
  0.187500000      0.975000024      0.338728338      -3.56200859E-02  0.340596050    
  0.187500000       1.00000000       0.00000000       0.00000000       0.00000000    
  0.312500000       0.00000000       0.00000000       0.00000000       0.00000000    
  0.312500000       2.50000004E-02  0.212850988       1.02658169E-02  0.213098407    
  0.312500000       7.50000030E-02  0.558438897       4.24236432E-02  0.560047984    
  0.312500000      0.125000000      0.813188672       8.61938447E-02  0.817743957    
  0.312500000      0.175000012      0.987255335      0.123102993      0.994900703    
  0.312500000      0.224999994       1.09791636      0.143770680       1.10728967    
  0.312500000      0.275000006       1.16287446      0.145813569       1.17198062    
  0.312500000      0.324999988       1.19742465      0.130923927       1.20456088    
  0.312500000      0.375000000       1.21352863      0.102642819       1.21786177    
  0.312500000      0.425000012       1.21976042       6.50139526E-02   1.22149181    
  0.312500000      0.475000024       1.22157121       2.19560973E-02   1.22176850    
  0.312500000      0.524999976       1.22159481      -2.28723977E-02   1.22180891    
  0.312500000      0.575000048       1.21983027      -6.59292042E-02   1.22161055    
  0.312500000      0.625000000       1.21363950     -0.103554510       1.21804941    
  0.312500000      0.675000012       1.19756770     -0.131826863       1.20480156    
  0.312500000      0.725000024       1.16303802     -0.146700010       1.17225349    
  0.312500000      0.774999976       1.09808540     -0.144631147       1.10756934    
  0.312500000      0.825000048      0.987413526     -0.123927377      0.995159984    
  0.312500000      0.875000000      0.813320279      -8.69737044E-02  0.817957401    
  0.312500000      0.925000012      0.558532834      -4.31466959E-02  0.560196877    
  0.312500000      0.975000024      0.212903261      -1.06109576E-02  0.213167518    
  0.312500000       1.00000000       0.00000000       0.00000000       0.00000000    
  0.437500000       0.00000000       0.00000000       0.00000000       0.00000000    
  0.437500000       2.50000004E-02  0.168336138       2.77174963E-03  0.168358967    
  0.437500000       7.50000030E-02  0.466689646       1.52159799E-02  0.466937631    
  0.437500000      0.125000000      0.715141535       3.71003821E-02  0.716103256    
  0.437500000      0.175000012      0.910248041       5.99585325E-02  0.912220657    
  0.437500000      0.224999994       1.05521417       7.69236684E-02   1.05801427    
  0.437500000      0.275000006       1.15724397       8.39641243E-02   1.16028595    
  0.437500000      0.324999988       1.22512174       7.97784925E-02   1.22771657    
  0.437500000      0.375000000       1.26742601       6.51735589E-02   1.26910055    
  0.437500000      0.425000012       1.29135299       4.23585437E-02   1.29204750    
  0.437500000      0.475000024       1.30200946       1.43566579E-02   1.30208862    
  0.437500000      0.524999976       1.30202579      -1.54103115E-02   1.30211699    
  0.437500000      0.575000048       1.29140019      -4.34021279E-02   1.29212928    
  0.437500000      0.625000000       1.26749587      -6.61957115E-02   1.26922321    
  0.437500000      0.675000012       1.22520256      -8.07676464E-02   1.22786188    
  0.437500000      0.725000024       1.15732360      -8.49098414E-02   1.16043425    
  0.437500000      0.774999976       1.05527842      -7.78175443E-02   1.05814373    
  0.437500000      0.825000048      0.910286784      -6.07955530E-02  0.912314713    
  0.437500000      0.875000000      0.715154052      -3.78801562E-02  0.716156602    
  0.437500000      0.925000012      0.466685951      -1.59352273E-02  0.466957927    
  0.437500000      0.975000024      0.168340266      -3.11517972E-03  0.168369085    
  0.437500000       1.00000000       0.00000000       0.00000000       0.00000000    
  0.562500000       0.00000000       0.00000000       0.00000000       0.00000000    
  0.562500000       2.50000004E-02  0.149406374       3.15401376E-05  0.149406374    
  0.562500000       7.50000030E-02  0.420390993       3.77423526E-03  0.420407951    
  0.562500000      0.125000000      0.657209218       1.33173447E-02  0.657344162    
  0.562500000      0.175000012      0.855937958       2.51009278E-02  0.856305957    
  0.562500000      0.224999994       1.01577759       3.53827700E-02   1.01639366    
  0.562500000      0.275000006       1.13874364       4.12669294E-02   1.13949108    
  0.562500000      0.324999988       1.22877479       4.11428101E-02   1.22946334    
  0.562500000      0.375000000       1.29064012       3.47531401E-02   1.29110801    
  0.562500000      0.425000012       1.32890034       2.30162516E-02   1.32909966    
  0.562500000      0.475000024       1.34708047       7.72377709E-03   1.34710252    
  0.562500000      0.524999976       1.34708214      -8.80718883E-03   1.34711099    
  0.562500000      0.575000048       1.32890010      -2.40849722E-02   1.32911837    
  0.562500000      0.625000000       1.29063106      -3.57928053E-02   1.29112732    
  0.562500000      0.675000012       1.22874928      -4.21413183E-02   1.22947168    
  0.562500000      0.725000024       1.13869429      -4.22138199E-02   1.13947654    
  0.562500000      0.774999976       1.01570058      -3.62708271E-02   1.01634800    
  0.562500000      0.825000048      0.855835438      -2.59288121E-02  0.856228113    
  0.562500000      0.875000000      0.657095551      -1.40883587E-02  0.657246530    
  0.562500000      0.925000012      0.420295894      -4.48732264E-03  0.420319825    
  0.562500000      0.975000024      0.149372250      -3.72762093E-04  0.149372712    
  0.562500000       1.00000000       0.00000000       0.00000000       0.00000000    
  0.687500000       0.00000000       0.00000000       0.00000000       0.00000000    
  0.687500000       2.50000004E-02  0.140230566      -1.12970220E-03  0.140235111    
  0.687500000       7.50000030E-02  0.396093458      -1.38723955E-03  0.396095902    
  0.687500000      0.125000000      0.623929143       1.83607766E-03  0.623931825    
  0.687500000      0.175000012      0.821012974       7.07931491E-03  0.821043491    
  0.687500000      0.224999994      0.985918164       1.24597698E-02  0.985996902    
  0.687500000      0.275000006       1.11870956       1.62836444E-02   1.11882806    
  0.687500000      0.324999988       1.22075045       1.73828937E-02   1.22087419    
  0.687500000      0.375000000       1.29422045       1.53020769E-02   1.29431093    
  0.687500000      0.425000012       1.34150076       1.03189200E-02   1.34154046    
  0.687500000      0.475000024       1.36457407       3.32639273E-03   1.36457813    
  0.687500000      0.524999976       1.36455750      -4.37772879E-03   1.36456454    
  0.687500000      0.575000048       1.34144473      -1.13556441E-02   1.34149277    
  0.687500000      0.625000000       1.29412293      -1.63099300E-02   1.29422569    
  0.687500000      0.675000012       1.22060931      -1.83496866E-02   1.22074723    
  0.687500000      0.725000024       1.11852539      -1.72014795E-02   1.11865759    
  0.687500000      0.774999976      0.985699534      -1.33239552E-02  0.985789597    
  0.687500000      0.825000048      0.820774674      -7.88905658E-03  0.820812583    
  0.687500000      0.875000000      0.623700559      -2.59547494E-03  0.623705983    
  0.687500000      0.925000012      0.395918667       6.79033168E-04  0.395919234    
  0.687500000      0.975000024      0.140165493       7.89366954E-04  0.140167713    
  0.687500000       1.00000000       0.00000000       0.00000000       0.00000000    
  0.812500000       0.00000000       0.00000000       0.00000000       0.00000000    
  0.812500000       2.50000004E-02  0.135247365      -1.64558843E-03  0.135257378    
  0.812500000       7.50000030E-02  0.382251918      -3.76205565E-03  0.382270426    
  0.812500000      0.125000000      0.603769720      -3.64909507E-03  0.603780746    
  0.812500000      0.175000012      0.797985911      -1.87276327E-03  0.797988117    
  0.812500000      0.224999994      0.963613987       6.28318870E-04  0.963614225    
  0.812500000      0.275000006       1.10009122       2.92489678E-03   1.10009515    
  0.812500000      0.324999988       1.20759392       4.28735465E-03   1.20760155    
  0.812500000      0.375000000       1.28686333       4.32476401E-03   1.28687060    
  0.812500000      0.425000012       1.33890486       3.04041710E-03   1.33890831    
  0.812500000      0.475000024       1.36463642       7.98063003E-04   1.36463666    
  0.812500000      0.524999976       1.36460102      -1.78852747E-03   1.36460221    
  0.812500000      0.575000048       1.33879697      -4.01778752E-03   1.33880293    
  0.812500000      0.625000000       1.28668499      -5.27740270E-03   1.28669584    
  0.812500000      0.675000012       1.20734835      -5.20513672E-03   1.20735955    
  0.812500000      0.725000024       1.09978843      -3.80134815E-03   1.09979498    
  0.812500000      0.774999976      0.963272095      -1.46077969E-03  0.963273168    
  0.812500000      0.825000048      0.797632575       1.08416448E-03  0.797633290    
  0.812500000      0.875000000      0.603445590       2.90152011E-03  0.603452563    
  0.812500000      0.925000012      0.382012010       3.05878185E-03  0.382024258    
  0.812500000      0.975000024      0.135157108       1.30635477E-03  0.135163411    
  0.812500000       1.00000000       0.00000000       0.00000000       0.00000000    
  0.937500000       0.00000000       0.00000000       0.00000000       0.00000000    
  0.937500000       2.50000004E-02  0.132122099      -1.87264371E-03  0.132135376    
  0.937500000       7.50000030E-02  0.373318911      -4.83660586E-03  0.373350263    
  0.937500000      0.125000000      0.590166092      -6.19910099E-03  0.590198636    
  0.937500000      0.175000012      0.781378865      -6.14651665E-03  0.781403005    
  0.937500000      0.224999994      0.945888400      -5.16602350E-03  0.945902526    
  0.937500000      0.275000006       1.08296633      -3.77165712E-03   1.08297288    
  0.937500000      0.324999988       1.19228578      -2.40966445E-03   1.19228828    
  0.937500000      0.375000000       1.27387357      -1.37637078E-03   1.27387428    
  0.937500000      0.425000012       1.32798219      -7.75370747E-04   1.32798243    
  0.937500000      0.475000024       1.35491121      -5.22575341E-04   1.35491133    
  0.937500000      0.524999976       1.35486031      -3.98651580E-04   1.35486031    
  0.937500000      0.575000048       1.32783127      -1.35967464E-04   1.32783127    
  0.937500000      0.625000000       1.27362871       4.83831827E-04   1.27362883    
  0.937500000      0.675000012       1.19195509       1.54360291E-03   1.19195604    
  0.937500000      0.725000024       1.08256781       2.93756044E-03   1.08257174    
  0.937500000      0.774999976      0.945449293       4.36616549E-03  0.945459366    
  0.937500000      0.825000048      0.780936480       5.38103096E-03  0.780955017    
  0.937500000      0.875000000      0.589768529       5.46582416E-03  0.589793861    
  0.937500000      0.925000012      0.373029441       4.13995795E-03  0.373052418    
  0.937500000      0.975000024      0.132012993       1.53502729E-03  0.132021919    
  0.937500000       1.00000000       0.00000000       0.00000000       0.00000000    
   1.06250000       0.00000000       0.00000000       0.00000000       0.00000000    
   1.06250000       2.50000004E-02  0.129805952      -1.96909276E-03  0.129820883    
   1.06250000       7.50000030E-02  0.366623491      -5.30383782E-03  0.366661847    
   1.06250000      0.125000000      0.579682529      -7.33387098E-03  0.579728901    
   1.06250000      0.175000012      0.767983437      -8.09067115E-03  0.768026054    
   1.06250000      0.224999994      0.930614471      -7.85579998E-03  0.930647612    
   1.06250000      0.275000006       1.06683040      -6.93676760E-03   1.06685293    
   1.06250000      0.324999988       1.17610812      -5.62252803E-03   1.17612159    
   1.06250000      0.375000000       1.25814652      -4.14158637E-03   1.25815332    
   1.06250000      0.425000012       1.31282508      -2.63622031E-03   1.31282771    
   1.06250000      0.475000024       1.34012496      -1.15959719E-03   1.34012544    
   1.06250000      0.524999976       1.34006310       3.01752356E-04   1.34006310    
   1.06250000      0.575000048       1.31264138       1.78608508E-03   1.31264257    
   1.06250000      0.625000000       1.25785017       3.30577465E-03   1.25785458    
   1.06250000      0.675000012       1.17571330       4.80589224E-03   1.17572320    
   1.06250000      0.725000024       1.06636095       6.14279322E-03   1.06637871    
   1.06250000      0.774999976      0.930104196       7.08657224E-03  0.930131197    
   1.06250000      0.825000048      0.767475605       7.34621286E-03  0.767510772    
   1.06250000      0.875000000      0.579233050       6.61258446E-03  0.579270780    
   1.06250000      0.925000012      0.366299570       4.61218413E-03  0.366328627    
   1.06250000      0.975000024      0.129684404       1.63253071E-03  0.129694685    
   1.06250000       1.00000000       0.00000000       0.00000000       0.00000000    
   1.18750000       0.00000000       0.00000000       0.00000000       0.00000000    
   1.18750000       2.50000004E-02  0.127822101      -2.00587953E-03  0.127837837    
   1.18750000       7.50000030E-02  0.360898823      -5.49141271E-03  0.360940605    
   1.18750000      0.125000000      0.570607662      -7.80586060E-03  0.570661068    
   1.18750000      0.175000012      0.756097078      -8.92029144E-03  0.756149709    
   1.18750000      0.224999994      0.916552007      -9.02764313E-03  0.916596472    
   1.18750000      0.275000006       1.05124843      -8.33925791E-03   1.05128145    
   1.18750000      0.324999988       1.15959620      -7.06473459E-03   1.15961778    
   1.18750000      0.375000000       1.24115896      -5.39352279E-03   1.24117064    
   1.18750000      0.425000012       1.29564774      -3.48045817E-03   1.29565239    
   1.18750000      0.475000024       1.32289243      -1.44059211E-03   1.32289314    
   1.18750000      0.524999976       1.32282364       6.39415928E-04   1.32282376    
   1.18750000      0.575000048       1.29544127       2.68395152E-03   1.29544401    
   1.18750000      0.625000000       1.24082708       4.60640527E-03   1.24083567    
   1.18750000      0.675000012       1.15915716       6.28996314E-03   1.15917420    
   1.18750000      0.725000024       1.05072999       7.57952780E-03   1.05075729    
   1.18750000      0.774999976      0.915993452       8.28415900E-03  0.916030884    
   1.18750000      0.825000048      0.755546331       8.19255691E-03  0.755590737    
   1.18750000      0.875000000      0.570124269       7.09369360E-03  0.570168376    
   1.18750000      0.925000012      0.360553086       4.80335858E-03  0.360585093    
   1.18750000      0.975000024      0.127693072       1.66999723E-03  0.127703995    
   1.18750000       1.00000000       0.00000000       0.00000000       0.00000000    
   1.31250000       0.00000000       0.00000000       0.00000000       0.00000000    
   1.31250000       2.50000004E-02  0.125961289      -2.01814133E-03  0.125977457    
   1.31250000       7.50000030E-02  0.355566263      -5.55901090E-03  0.355609715    
   1.31250000      0.125000000      0.562129498      -7.98441656E-03  0.562186182    
   1.31250000      0.175000012      0.744875669      -9.24465060E-03  0.744933069    
   1.31250000      0.224999994      0.903047621      -9.49735194E-03  0.903097570    
   1.31250000      0.275000006       1.03594637      -8.91182199E-03   1.03598464    
   1.31250000      0.324999988       1.14296818      -7.66156474E-03   1.14299381    
   1.31250000      0.375000000       1.22362781      -5.91551047E-03   1.22364211    
   1.31250000      0.425000012       1.27756858      -3.83064570E-03   1.27757430    
   1.31250000      0.475000024       1.30455709      -1.55065581E-03   1.30455792    
   1.31250000      0.524999976       1.30448353       7.93488172E-04   1.30448377    
   1.31250000      0.575000048       1.27734828       3.07622342E-03   1.27735198    
   1.31250000      0.625000000       1.22327363       5.16611477E-03   1.22328448    
   1.31250000      0.675000012       1.14250159       6.91917678E-03   1.14252257    
   1.31250000      0.725000024       1.03539753       8.17773864E-03   1.03542984    
   1.31250000      0.774999976      0.902459800       8.77275690E-03  0.902502418    
   1.31250000      0.825000048      0.744300127       8.52940418E-03  0.744349003    
   1.31250000      0.875000000      0.561626554       7.27864075E-03  0.561673701    
   1.31250000      0.925000012      0.355208069       4.87322453E-03  0.355241507    
   1.31250000      0.975000024      0.125826925       1.68270175E-03  0.125838175    
   1.31250000       1.00000000       0.00000000       0.00000000       0.00000000    
   1.43750000       0.00000000       0.00000000       0.00000000       0.00000000    
   1.43750000       2.50000004E-02  0.124138407      -2.02084612E-03  0.124154858    
   1.43750000       7.50000030E-02  0.350372612      -5.57724992E-03  0.350416988    
   1.43750000      0.125000000      0.553879142      -8.03860649E-03  0.553937435    
   1.43750000      0.175000012      0.733922005      -9.35117342E-03  0.733981550    
   1.43750000      0.224999994      0.889778733      -9.65992361E-03  0.889831185    
   1.43750000      0.275000006       1.02077305      -9.11718793E-03   1.02081370    
   1.43750000      0.324999988       1.12630582      -7.88070820E-03   1.12633336    
   1.43750000      0.375000000       1.20588005      -6.10936526E-03   1.20589554    
   1.43750000      0.425000012       1.25911593      -3.96038312E-03   1.25912213    
   1.43750000      0.475000024       1.28575993      -1.58707856E-03   1.28576088    
   1.43750000      0.524999976       1.28568399       8.61028559E-04   1.28568423    
   1.43750000      0.575000048       1.25888944       3.23532429E-03   1.25889361    
   1.43750000      0.625000000       1.20551455       5.38653415E-03   1.20552659    
   1.43750000      0.675000012       1.12582541       7.16140494E-03   1.12584817    
   1.43750000      0.725000024       1.02021039       8.40196013E-03   1.02024496    
   1.43750000      0.774999976      0.889177680       8.94916244E-03  0.889222741    
   1.43750000      0.825000048      0.733334899       8.64583626E-03  0.733385861    
   1.43750000      0.875000000      0.553368449       7.33977091E-03  0.553417146    
   1.43750000      0.925000012      0.350010455       4.89540165E-03  0.350044698    
   1.43750000      0.975000024      0.124002993       1.68668572E-03  0.124014467    
   1.43750000       1.00000000       0.00000000       0.00000000       0.00000000    
   1.56250000       0.00000000       0.00000000       0.00000000       0.00000000    
   1.56250000       2.50000004E-02  0.122320317      -2.02012784E-03  0.122336999    
   1.56250000       7.50000030E-02  0.345215052      -5.57754887E-03  0.345260113    
   1.56250000      0.125000000      0.545700014      -8.04666523E-03  0.545759320    
   1.56250000      0.175000012      0.723061442      -9.37418919E-03  0.723122180    
   1.56250000      0.224999994      0.876598954      -9.70105641E-03  0.876652598    
   1.56250000      0.275000006       1.00565326      -9.17372108E-03   1.00569510    
   1.56250000      0.324999988       1.10963702      -7.94396549E-03   1.10966539    
   1.56250000      0.375000000       1.18805528      -6.16636919E-03   1.18807125    
   1.56250000      0.425000012       1.24052525      -3.99735849E-03   1.24053168    
   1.56250000      0.475000024       1.26678669      -1.59356056E-03   1.26678765    
   1.56250000      0.524999976       1.26671028       8.88996059E-04   1.26671064    
   1.56250000      0.575000048       1.24029660       3.29340063E-03   1.24030101    
   1.56250000      0.625000000       1.18768692       5.46280621E-03   1.18769944    
   1.56250000      0.675000012       1.10915327       7.24090170E-03   1.10917699    
   1.56250000      0.725000024       1.00508821       8.47134180E-03   1.00512385    
   1.56250000      0.774999976      0.875995755       8.99917539E-03  0.876042008    
   1.56250000      0.825000048      0.722473264       8.67351703E-03  0.722525299    
   1.56250000      0.875000000      0.545189798       7.34941382E-03  0.545239329    
   1.56250000      0.925000012      0.344854534       4.89557302E-03  0.344889283    
   1.56250000      0.975000024      0.122186325       1.68555800E-03  0.122197956    
   1.56250000       1.00000000       0.00000000       0.00000000       0.00000000    
   1.68750000       0.00000000       0.00000000       0.00000000       0.00000000    
   1.68750000       2.50000004E-02  0.120498240      -2.01950362E-03  0.120515160    
   1.68750000       7.50000030E-02  0.340059817      -5.57516562E-03  0.340105504    
   1.68750000      0.125000000      0.537535071      -8.04284215E-03  0.537595272    
   1.68750000      0.175000012      0.712226152      -9.37089883E-03  0.712287784    
   1.68750000      0.224999994      0.863447905      -9.70088411E-03  0.863502383    
   1.68750000      0.275000006      0.990555644      -9.17796977E-03  0.990598142    
   1.68750000      0.324999988       1.09297299      -7.95107149E-03   1.09300184    
   1.68750000      0.375000000       1.17021239      -6.17344119E-03   1.17022872    
   1.68750000      0.425000012       1.22189558      -4.00062930E-03   1.22190213    
   1.68750000      0.475000024       1.24776268      -1.58983644E-03   1.24776363    
   1.68750000      0.524999976       1.24768615       8.99957900E-04   1.24768651    
   1.68750000      0.575000048       1.22166705       3.31013626E-03   1.22167158    
   1.68750000      0.625000000       1.16984522       5.48250321E-03   1.16985810    
   1.68750000      0.675000012       1.09249139       7.25892000E-03   1.09251547    
   1.68750000      0.725000024      0.989993572       8.48398823E-03  0.990029931    
   1.68750000      0.774999976      0.862849236       9.00546834E-03  0.862896264    
   1.68750000      0.825000048      0.711643577       8.67452472E-03  0.711696446    
   1.68750000      0.875000000      0.537030697       7.34718610E-03  0.537080944    
   1.68750000      0.925000012      0.339703619       4.89303423E-03  0.339738846    
   1.68750000      0.975000024      0.120365284       1.68467616E-03  0.120377071    
   1.68750000       1.00000000       0.00000000       0.00000000       0.00000000    
   1.81250000       0.00000000       0.00000000       0.00000000       0.00000000    
   1.81250000       2.50000004E-02  0.118671022      -2.01855949E-03  0.118688188    
   1.81250000       7.50000030E-02  0.334897578      -5.57145569E-03  0.334943920    
   1.81250000      0.125000000      0.529366493      -8.03573057E-03  0.529427469    
   1.81250000      0.175000012      0.701392412      -9.36140120E-03  0.701454878    
   1.81250000      0.224999994      0.850302577      -9.69057530E-03  0.850357831    
   1.81250000      0.275000006      0.975465417      -9.16802604E-03  0.975508511    
   1.81250000      0.324999988       1.07631409      -7.94210099E-03   1.07634342    
   1.81250000      0.375000000       1.15236998      -6.16586860E-03   1.15238643    
   1.81250000      0.425000012       1.20326090      -3.99434241E-03   1.20326757    
   1.81250000      0.475000024       1.22873116      -1.58485514E-03   1.22873223    
   1.81250000      0.524999976       1.22865558       9.03278473E-04   1.22865593    
   1.81250000      0.575000048       1.20303488       3.31158657E-03   1.20303941    
   1.81250000      0.625000000       1.15200686       5.48179355E-03   1.15201986    
   1.81250000      0.675000012       1.07583809       7.25594722E-03   1.07586253    
   1.81250000      0.725000024      0.974910617       8.47890694E-03  0.974947512    
   1.81250000      0.774999976      0.849712849       8.99910741E-03  0.849760532    