 TITLE= "TESTPLOT" 
 VARIABLES="x","y","fx","fy","magf" 
 ZONE T="1", I=          81 , J=          21
   0.00000000       0.00000000       1.00000000       0.00000000       1.00000000    
   0.00000000       2.50000004E-02   1.00000000       0.00000000       1.00000000    
   0.00000000       7.50000030E-02   1.00000000       0.00000000       1.00000000    
   0.00000000      0.125000000       1.00000000       0.00000000       1.00000000    
   0.00000000      0.175000012       1.00000000       0.00000000       1.00000000    
   0.00000000      0.224999994       1.00000000       0.00000000       1.00000000    
   0.00000000      0.275000006       1.00000000       0.00000000       1.00000000    
   0.00000000      0.324999988       1.00000000       0.00000000       1.00000000    
   0.00000000      0.375000000       1.00000000       0.00000000       1.00000000    
   0.00000000      0.425000012       1.00000000       0.00000000       1.00000000    
   0.00000000      0.475000024       1.00000000       0.00000000       1.00000000    
   0.00000000      0.524999976       1.00000000       0.00000000       1.00000000    
   0.00000000      0.575000048       1.00000000       0.00000000       1.00000000    
   0.00000000      0.625000000       1.00000000       0.00000000       1.00000000    
   0.00000000      0.675000012       1.00000000       0.00000000       1.00000000    
   0.00000000      0.725000024       1.00000000       0.00000000       1.00000000    
   0.00000000      0.774999976       1.00000000       0.00000000       1.00000000    
   0.00000000      0.825000048       1.00000000       0.00000000       1.00000000    
   0.00000000      0.875000000       1.00000000       0.00000000       1.00000000    
   0.00000000      0.925000012       1.00000000       0.00000000       1.00000000    
   0.00000000      0.975000024       1.00000000       0.00000000       1.00000000    
   0.00000000       1.00000000       1.00000000       0.00000000       1.00000000    
   6.25000000E-02   0.00000000      0.500000000       0.00000000      0.500000000    
   6.25000000E-02   2.50000004E-02  0.717645824      0.109821185      0.726000190    
   6.25000000E-02   7.50000030E-02  0.924971104      0.246297851      0.957201242    
   6.25000000E-02  0.125000000       1.01654446      0.262984693       1.05001128    
   6.25000000E-02  0.175000012       1.04891133      0.230102718       1.07385397    
   6.25000000E-02  0.224999994       1.05304170      0.182625026       1.06876040    
   6.25000000E-02  0.275000006       1.04606414      0.136287659       1.05490506    
   6.25000000E-02  0.324999988       1.03673220       9.64743048E-02   1.04121125    
   6.25000000E-02  0.375000000       1.02882147       6.35579228E-02   1.03078282    
   6.25000000E-02  0.425000012       1.02351046       3.59301493E-02   1.02414095    
   6.25000000E-02  0.475000024       1.02091384       1.14654833E-02   1.02097821    
   6.25000000E-02  0.524999976       1.02091813      -1.19621893E-02   1.02098823    
   6.25000000E-02  0.575000048       1.02352345      -3.64337526E-02   1.02417171    
   6.25000000E-02  0.625000000       1.02884507      -6.40757605E-02   1.03083849    
   6.25000000E-02  0.675000012       1.03676891      -9.70155597E-02   1.04129815    
   6.25000000E-02  0.725000024       1.04611635     -0.136863321       1.05503130    
   6.25000000E-02  0.774999976       1.05311036     -0.183246911       1.06893444    
   6.25000000E-02  0.825000048       1.04899526     -0.230781794       1.07408154    
   6.25000000E-02  0.875000000       1.01663864     -0.263728321       1.05028892    
   6.25000000E-02  0.925000012      0.925066113     -0.247094706      0.957498372    
   6.25000000E-02  0.975000024      0.717723072     -0.110229507      0.726138353    
   6.25000000E-02   1.00000000      0.500000000       0.00000000      0.500000000    
  0.187500000       0.00000000       0.00000000       0.00000000       0.00000000    
  0.187500000       2.50000004E-02  0.348532528       3.15604061E-02  0.349958539    
  0.187500000       7.50000030E-02  0.757100582       9.68721360E-02  0.763272882    
  0.187500000      0.125000000      0.979421258      0.148709461      0.990646541    
  0.187500000      0.175000012       1.08312058      0.169297040       1.09627175    
  0.187500000      0.224999994       1.11759925      0.163813800       1.12954104    
  0.187500000      0.275000006       1.11754322      0.142284840       1.12656462    
  0.187500000      0.324999988       1.10456812      0.112921193       1.11032510    
  0.187500000      0.375000000       1.09015107       8.07202905E-02   1.09313548    
  0.187500000      0.425000012       1.07929778       4.80499826E-02   1.08036685    
  0.187500000      0.475000024       1.07368851       1.56387370E-02   1.07380235    
  0.187500000      0.524999976       1.07370019      -1.66070573E-02   1.07382870    
  0.187500000      0.575000048       1.07933378      -4.90231663E-02   1.08044648    
  0.187500000      0.625000000       1.09021378      -8.17029476E-02   1.09327102    
  0.187500000      0.675000012       1.10466063     -0.113916725       1.11051893    
  0.187500000      0.725000024       1.11766601     -0.143294096       1.12681437    
  0.187500000      0.774999976       1.11774814     -0.164833054       1.12983668    
  0.187500000      0.825000048       1.08328545     -0.170316577       1.09659255    
  0.187500000      0.875000000      0.979585290     -0.149712279      0.990959704    
  0.187500000      0.925000012      0.757246614      -9.78255421E-02  0.763539314    
  0.187500000      0.975000024      0.348643839      -3.20191868E-02  0.350111067    
  0.187500000       1.00000000       0.00000000       0.00000000       0.00000000    
  0.312500000       0.00000000       0.00000000       0.00000000       0.00000000    
  0.312500000       2.50000004E-02  0.237530634       6.56071305E-03  0.237621218    
  0.312500000       7.50000030E-02  0.620831609       2.71145273E-02  0.621423423    
  0.312500000      0.125000000      0.886128902       5.35838827E-02  0.887747526    
  0.312500000      0.175000012       1.04265189       7.29949921E-02   1.04520392    
  0.312500000      0.224999994       1.11826396       8.08995366E-02   1.12118638    
  0.312500000      0.275000006       1.14409626       7.80434310E-02   1.14675498    
  0.312500000      0.324999988       1.14506912       6.70882463E-02   1.14703274    
  0.312500000      0.375000000       1.13715720       5.07894009E-02   1.13829088    
  0.312500000      0.425000012       1.12888849       3.13241035E-02   1.12932301    
  0.312500000      0.475000024       1.12408900       1.02419024E-02   1.12413561    
  0.312500000      0.524999976       1.12410402      -1.13306427E-02   1.12416112    
  0.312500000      0.575000048       1.12893438      -3.24125290E-02   1.12939966    
  0.312500000      0.625000000       1.13723373      -5.18769957E-02   1.13841629    
  0.312500000      0.675000012       1.14517546      -6.81724697E-02   1.14720285    
  0.312500000      0.725000024       1.14422548      -7.91192949E-02   1.14695764    
  0.312500000      0.774999976       1.11840260      -8.19597691E-02   1.12140167    
  0.312500000      0.825000048       1.04277992      -7.40295351E-02   1.04540443    
  0.312500000      0.875000000      0.886224151      -5.45808934E-02  0.887903333    
  0.312500000      0.925000012      0.620888054      -2.80533358E-02  0.621521473    
  0.312500000      0.975000024      0.237571150      -7.01190811E-03  0.237674609    
  0.312500000       1.00000000       0.00000000       0.00000000       0.00000000    
  0.437500000       0.00000000       0.00000000       0.00000000       0.00000000    
  0.437500000       2.50000004E-02  0.205085993       1.54171823E-04  0.205086038    
  0.437500000       7.50000030E-02  0.558604240       4.46098298E-03  0.558622062    
  0.437500000      0.125000000      0.824778795       1.39407758E-02  0.824896634    
  0.437500000      0.175000012      0.997838497       2.35254653E-02  0.998115778    
  0.437500000      0.224999994       1.09371638       2.99013965E-02   1.09412503    
  0.437500000      0.275000006       1.13736057       3.18095013E-02   1.13780534    
  0.437500000      0.324999988       1.15167165       2.93576308E-02   1.15204573    
  0.437500000      0.375000000       1.15270138       2.33380310E-02   1.15293765    
  0.437500000      0.425000012       1.14975309       1.47801144E-02   1.14984810    
  0.437500000      0.475000024       1.14740169       4.73152474E-03   1.14741147    
  0.437500000      0.524999976       1.14741540      -5.80520183E-03   1.14743006    
  0.437500000      0.575000048       1.14979398      -1.58511754E-02   1.14990330    
  0.437500000      0.625000000       1.15276730      -2.44033933E-02   1.15302563    
  0.437500000      0.675000012       1.15175855      -3.04135215E-02   1.15216005    
  0.437500000      0.725000024       1.13745785      -3.28512564E-02   1.13793218    
  0.437500000      0.774999976       1.09380698      -3.09234560E-02   1.09424400    
  0.437500000      0.825000048      0.997900963      -2.45217308E-02  0.998202205    
  0.437500000      0.875000000      0.824796081      -1.49052758E-02  0.824930727    
  0.437500000      0.925000012      0.558585763      -5.37872594E-03  0.558611691    
  0.437500000      0.975000024      0.205083892      -5.98299492E-04  0.205084771    
  0.437500000       1.00000000       0.00000000       0.00000000       0.00000000    
  0.562500000       0.00000000       0.00000000       0.00000000       0.00000000    
  0.562500000       2.50000004E-02  0.192967206      -1.54764205E-03  0.192973420    
  0.562500000       7.50000030E-02  0.529856801      -2.47063651E-03  0.529862583    
  0.562500000      0.125000000      0.790081024      -7.23381527E-06  0.790081024    
  0.562500000      0.175000012      0.965446591       3.82139231E-03  0.965454161    
  0.562500000      0.224999994       1.06802893       7.26059731E-03   1.06805360    
  0.562500000      0.275000006       1.11967063       9.28977318E-03   1.11970913    
  0.562500000      0.324999988       1.14136827       9.52650141E-03   1.14140797    
  0.562500000      0.375000000       1.14823020       8.04396998E-03   1.14825833    
  0.562500000      0.425000012       1.14920902       5.19633386E-03   1.14922082    
  0.562500000      0.475000024       1.14881217       1.48705766E-03   1.14881313    
  0.562500000      0.524999976       1.14882255      -2.51434464E-03   1.14882529    
  0.562500000      0.575000048       1.14923954      -6.22063968E-03   1.14925635    
  0.562500000      0.625000000       1.14827859      -9.06233490E-03   1.14831436    
  0.562500000      0.675000012       1.14142847      -1.05357440E-02   1.14147711    
  0.562500000      0.725000024       1.11973155      -1.02866963E-02   1.11977875    
  0.562500000      0.774999976       1.06807399      -8.24193284E-03   1.06810582    
  0.562500000      0.825000048      0.965456486      -4.78344550E-03  0.965468347    
  0.562500000      0.875000000      0.790044487      -9.32084746E-04  0.790045083    
  0.562500000      0.925000012      0.529792488       1.56784907E-03  0.529794812    
  0.562500000      0.975000024      0.192942247       1.10842893E-03  0.192945436    
  0.562500000       1.00000000       0.00000000       0.00000000       0.00000000    
  0.687500000       0.00000000       0.00000000       0.00000000       0.00000000    
  0.687500000       2.50000004E-02  0.186371624      -2.02878262E-03  0.186382666    
  0.687500000       7.50000030E-02  0.512933612      -4.60593309E-03  0.512954295    
  0.687500000      0.125000000      0.767599225      -4.68478492E-03  0.767613471    
  0.687500000      0.175000012      0.941569328      -3.33495112E-03  0.941575229    
  0.687500000      0.224999994       1.04551816      -1.57825067E-03   1.04551935    
  0.687500000      0.275000006       1.09994745      -7.01193349E-05   1.09994745    
  0.687500000      0.324999988       1.12481499       8.48855940E-04   1.12481534    
  0.687500000      0.375000000       1.13451493       1.08458719E-03   1.13451552    
  0.687500000      0.425000012       1.13756704       7.21403689E-04   1.13756728    
  0.687500000      0.475000024       1.13825142      -4.13977250E-05   1.13825142    
  0.687500000      0.524999976       1.13825893      -9.43056075E-04   1.13825929    
  0.687500000      0.575000048       1.13758838      -1.70364929E-03   1.13758969    
  0.687500000      0.625000000       1.13454807      -2.06237286E-03   1.13454998    
  0.687500000      0.675000012       1.12485361      -1.81991199E-03   1.12485504    
  0.687500000      0.725000024       1.09998131      -8.91866395E-04   1.09998167    
  0.687500000      0.774999976       1.04553187       6.27491449E-04   1.04553211    
  0.687500000      0.825000048      0.941545844       2.39726808E-03  0.941548884    
  0.687500000      0.875000000      0.767530620       3.76265822E-03  0.767539859    
  0.687500000      0.925000012      0.512843847       3.71347694E-03  0.512857318    
  0.687500000      0.975000024      0.186334819       1.59311667E-03  0.186341628    
  0.687500000       1.00000000       0.00000000       0.00000000       0.00000000    
  0.812500000       0.00000000       0.00000000       0.00000000       0.00000000    
  0.812500000       2.50000004E-02  0.181409538      -2.16960278E-03  0.181422517    
  0.812500000       7.50000030E-02  0.500000954      -5.27671911E-03  0.500028789    
  0.812500000      0.125000000      0.749883294      -6.24779006E-03  0.749909341    
  0.812500000      0.175000012      0.921699882      -5.86024160E-03  0.921718538    
  0.812500000      0.224999994       1.02525043      -4.85286163E-03   1.02526188    
  0.812500000      0.275000006       1.08031011      -3.68701853E-03   1.08031642    
  0.812500000      0.324999988       1.10627699      -2.62252148E-03   1.10628009    
  0.812500000      0.375000000       1.11712575      -1.77328195E-03   1.11712718    
  0.812500000      0.425000012       1.12108517      -1.14705216E-03   1.12108576    
  0.812500000      0.475000024       1.12226224      -6.80830970E-04   1.12226248    
  0.812500000      0.524999976       1.12226748      -2.71649333E-04   1.12226748    
  0.812500000      0.575000048       1.12110019       1.96283945E-04   1.12110019    
  0.812500000      0.625000000       1.11714780       8.25801515E-04   1.11714816    
  0.812500000      0.675000012       1.10630107       1.67991978E-03   1.10630238    
  0.812500000      0.725000024       1.08032620       2.75036413E-03   1.08032966    
  0.812500000      0.774999976       1.02524447       3.92328296E-03   1.02525198    
  0.812500000      0.825000048      0.921655953       4.93938383E-03  0.921669185    
  0.812500000      0.875000000      0.749795794       5.33834472E-03  0.749814808    
  0.812500000      0.925000012      0.499896944       4.39331681E-03  0.499916255    
  0.812500000      0.975000024      0.181366593       1.73764990E-03  0.181374922    
  0.812500000       1.00000000       0.00000000       0.00000000       0.00000000    
  0.937500000       0.00000000       0.00000000       0.00000000       0.00000000    
  0.937500000       2.50000004E-02  0.176989466      -2.20899237E-03  0.177003250    
  0.937500000       7.50000030E-02  0.488464296      -5.48575446E-03  0.488495111    
  0.937500000      0.125000000      0.733977318      -6.76890882E-03  0.734008551    
  0.937500000      0.175000012      0.903523326      -6.74186274E-03  0.903548479    
  0.937500000      0.224999994       1.00611866      -6.03818987E-03   1.00613678    
  0.937500000      0.275000006       1.06099582      -5.03523834E-03   1.06100786    
  0.937500000      0.324999988       1.08718848      -3.94685147E-03   1.08719563    
  0.937500000      0.375000000       1.09841061      -2.88190087E-03   1.09841442    
  0.937500000      0.425000012       1.10270965      -1.87857822E-03   1.10271132    
  0.937500000      0.475000024       1.10408163      -9.28858994E-04   1.10408199    
  0.937500000      0.524999976       1.10408545       7.51897460E-07   1.10408545    
  0.937500000      0.575000048       1.10272026       9.51363763E-04   1.10272074    
  0.937500000      0.625000000       1.09842539       1.95627380E-03   1.09842718    
  0.937500000      0.675000012       1.08720326       3.02378973E-03   1.08720744    
  0.937500000      0.725000024       1.06100082       4.11602296E-03   1.06100881    
  0.937500000      0.774999976       1.00610018       5.12407999E-03   1.00611317    
  0.937500000      0.825000048      0.903467298       5.83411474E-03  0.903486133    
  0.937500000      0.875000000      0.733879447       5.86972851E-03  0.733902931    
  0.937500000      0.925000012      0.488352954       4.61008400E-03  0.488374710    
  0.937500000      0.975000024      0.176943451       1.78038003E-03  0.176952407    
  0.937500000       1.00000000       0.00000000       0.00000000       0.00000000    
   1.06250000       0.00000000       0.00000000       0.00000000       0.00000000    
   1.06250000       2.50000004E-02  0.172787249      -2.21609930E-03  0.172801465    
   1.06250000       7.50000030E-02  0.477469891      -5.54291299E-03  0.477502078    
   1.06250000      0.125000000      0.718800962      -6.93539996E-03  0.718834400    
   1.06250000      0.175000012      0.886073589      -7.04317400E-03  0.886101544    
   1.06250000      0.224999994      0.987534761      -6.45844731E-03  0.987555861    
   1.06250000      0.275000006       1.04193258      -5.52468328E-03   1.04194725    
   1.06250000      0.324999988       1.06800735      -4.43575857E-03   1.06801653    
   1.06250000      0.375000000       1.07928133      -3.29583650E-03   1.07928634    
   1.06250000      0.425000012       1.08367586      -2.15265760E-03   1.08367801    
   1.06250000      0.475000024       1.08511198      -1.01941905E-03   1.08511245    
   1.06250000      0.524999976       1.08511496       1.08824184E-04   1.08511496    
   1.06250000      0.575000048       1.08368361       1.24271610E-03   1.08368433    
   1.06250000      0.625000000       1.07929206       2.38719350E-03   1.07929468    
   1.06250000      0.675000012       1.06801653       3.52876820E-03   1.06802237    
   1.06250000      0.725000024       1.04193103       4.62003052E-03   1.04194129    
   1.06250000      0.774999976      0.987509727       5.55709843E-03  0.987525344    
   1.06250000      0.825000048      0.886011422       6.14644121E-03  0.886032760    
   1.06250000      0.875000000      0.718698263       6.04585372E-03  0.718723655    
   1.06250000      0.925000012      0.477355421       4.67540976E-03  0.477378309    
   1.06250000      0.975000024      0.172739938       1.79112516E-03  0.172749221    
   1.06250000       1.00000000       0.00000000       0.00000000       0.00000000    
   1.18750000       0.00000000       0.00000000       0.00000000       0.00000000    
   1.18750000       2.50000004E-02  0.168705851      -2.21257890E-03  0.168720365    
   1.18750000       7.50000030E-02  0.466736794      -5.54908812E-03  0.466769785    
   1.18750000      0.125000000      0.703972697      -6.97938539E-03  0.704007268    
   1.18750000      0.175000012      0.868982315      -7.13856611E-03  0.869011641    
   1.18750000      0.224999994      0.969249129      -6.60117948E-03  0.969271600    
   1.18750000      0.275000006       1.02305841      -5.69636887E-03   1.02307427    
   1.18750000      0.324999988       1.04888415      -4.60979668E-03   1.04889429    
   1.18750000      0.375000000       1.06008363      -3.44392937E-03   1.06008923    
   1.18750000      0.425000012       1.06447530      -2.25004205E-03   1.06447768    
   1.18750000      0.475000024       1.06592250      -1.04916352E-03   1.06592298    
   1.18750000      0.524999976       1.06592488       1.52737572E-04   1.06592488    
   1.18750000      0.575000048       1.06448150       1.35416654E-03   1.06448233    
   1.18750000      0.625000000       1.06009185       2.54899496E-03   1.06009495    
   1.18750000      0.675000012       1.04889035       3.71577777E-03   1.04889691    
   1.18750000      0.725000024       1.02305341       4.80363425E-03   1.02306473    
   1.18750000      0.774999976      0.969220698       5.71090030E-03  0.969237506    
   1.18750000      0.825000048      0.868917108       6.25199126E-03  0.868939579    
   1.18750000      0.875000000      0.703867793       6.09871093E-03  0.703894198    
   1.18750000      0.925000012      0.466621339       4.68921708E-03  0.466644913    
   1.18750000      0.975000024      0.168658003       1.79115299E-03  0.168667510    
   1.18750000       1.00000000       0.00000000       0.00000000       0.00000000    
   1.31250000       0.00000000       0.00000000       0.00000000       0.00000000    
   1.31250000       2.50000004E-02  0.164717525      -2.20498117E-03  0.164732277    
   1.31250000       7.50000030E-02  0.456175357      -5.53708524E-03  0.456208974    
   1.31250000      0.125000000      0.689362347      -6.98074419E-03  0.689397693    
   1.31250000      0.175000012      0.852117062      -7.16134906E-03  0.852147162    
   1.31250000      0.224999994      0.951166987      -6.64387038E-03  0.951190233    
   1.31250000      0.275000006       1.00434589      -5.75174391E-03   1.00436234    
   1.31250000      0.324999988       1.02987301      -4.66768909E-03   1.02988362    
   1.31250000      0.375000000       1.04094958      -3.49343102E-03   1.04095542    
   1.31250000      0.425000012       1.04530060      -2.28162319E-03   1.04530311    
   1.31250000      0.475000024       1.04673815      -1.05637056E-03   1.04673874    
   1.31250000      0.524999976       1.04674006       1.72124332E-04   1.04674006    
   1.31250000      0.575000048       1.04530573       1.39766908E-03   1.04530668    
   1.31250000      0.625000000       1.04095602       2.61000684E-03   1.04095924    
   1.31250000      0.675000012       1.02987719       3.78489355E-03   1.02988410    
   1.31250000      0.725000024       1.00433922       4.87002218E-03   1.00435102    
   1.31250000      0.774999976      0.951136827       5.76400990E-03  0.951154292    
   1.31250000      0.825000048      0.852051020       6.28435146E-03  0.852074206    
   1.31250000      0.875000000      0.689257681       6.10873196E-03  0.689284742    
   1.31250000      0.925000012      0.456060708       4.68505267E-03  0.456084758    
   1.31250000      0.975000024      0.164669991       1.78732490E-03  0.164679691    
   1.31250000       1.00000000       0.00000000       0.00000000       0.00000000    
   1.43750000       0.00000000       0.00000000       0.00000000       0.00000000    
   1.43750000       2.50000004E-02  0.160815880      -2.19523092E-03  0.160830855    
   1.43750000       7.50000030E-02  0.445761114      -5.51737752E-03  0.445795268    
   1.43750000      0.125000000      0.674930453      -6.96607912E-03  0.674966395    
   1.43750000      0.175000012      0.835434675      -7.15805031E-03  0.835465372    
   1.43750000      0.224999994      0.933256567      -6.65094331E-03  0.933280230    
   1.43750000      0.275000006      0.985788107      -5.76522062E-03  0.985804975    
   1.43750000      0.324999988       1.01099694      -4.68318257E-03   1.01100779    
   1.43750000      0.375000000       1.02193236      -3.50662461E-03   1.02193832    
   1.43750000      0.425000012       1.02622843      -2.28893314E-03   1.02623105    
   1.43750000      0.475000024       1.02764869      -1.05548324E-03   1.02764928    
   1.43750000      0.524999976       1.02765059       1.81909330E-04   1.02765059    
   1.43750000      0.575000048       1.02623320       1.41552067E-03   1.02623415    
   1.43750000      0.625000000       1.02193809       2.63375929E-03   1.02194142    
   1.43750000      0.675000012       1.01099992       3.81120876E-03   1.01100707    
   1.43750000      0.725000024      0.985780358       4.89435717E-03  0.985792518    
   1.43750000      0.774999976      0.933225989       5.78139396E-03  0.933243930    
   1.43750000      0.825000048      0.835368931       6.29063696E-03  0.835392594    
   1.43750000      0.875000000      0.674826741       6.10309746E-03  0.674854338    
   1.43750000      0.925000012      0.445647776       4.67390707E-03  0.445672303    
   1.43750000      0.975000024      0.160768956       1.78173662E-03  0.160778821    
   1.43750000       1.00000000       0.00000000       0.00000000       0.00000000    
   1.56250000       0.00000000       0.00000000       0.00000000       0.00000000    
   1.56250000       2.50000004E-02  0.157000542      -2.18428439E-03  0.157015726    
   1.56250000       7.50000030E-02  0.435490847      -5.49400970E-03  0.435525507    
   1.56250000      0.125000000      0.660668850      -6.94517139E-03  0.660705388    
   1.56250000      0.175000012      0.818925500      -7.14536337E-03  0.818956673    
   1.56250000      0.224999994      0.915511429      -6.64547924E-03  0.915535569    
   1.56250000      0.275000006      0.967386127      -5.76388463E-03  0.967403293    
   1.56250000      0.324999988      0.992268324      -4.68331575E-03  0.992279351    
   1.56250000      0.375000000       1.00305545      -3.50661110E-03   1.00306153    
   1.56250000      0.425000012       1.00729156      -2.28751148E-03   1.00729418    
   1.56250000      0.475000024       1.00869191      -1.05173222E-03   1.00869250    
   1.56250000      0.524999976       1.00869358       1.88445454E-04   1.00869358    
   1.56250000      0.575000048       1.00729609       1.42450351E-03   1.00729716    
   1.56250000      0.625000000       1.00306129       2.64415937E-03   1.00306487    
   1.56250000      0.675000012      0.992271185       3.82152479E-03  0.992278516    
   1.56250000      0.725000024      0.967378497       4.90257144E-03  0.967390895    
   1.56250000      0.774999976      0.915481508       5.78504940E-03  0.915499747    
   1.56250000      0.825000048      0.818860829       6.28710259E-03  0.818884969    
   1.56250000      0.875000000      0.660566926       6.09149877E-03  0.660595000    
   1.56250000      0.925000012      0.435379267       4.65939846E-03  0.435404211    
   1.56250000      0.975000024      0.156953752       1.77493948E-03  0.156963781    
   1.56250000       1.00000000       0.00000000       0.00000000       0.00000000    
   1.68750000       0.00000000       0.00000000       0.00000000       0.00000000    
   1.68750000       2.50000004E-02  0.153270707      -2.17189570E-03  0.153286085    
   1.68750000       7.50000030E-02  0.425367773      -5.46755455E-03  0.425402910    
   1.68750000      0.125000000      0.646580815      -6.92076981E-03  0.646617830    
   1.68750000      0.175000012      0.802591503      -7.12844450E-03  0.802623153    
   1.68750000      0.224999994      0.897934318      -6.63462188E-03  0.897958815    
   1.68750000      0.275000006      0.949145436      -5.75666083E-03  0.949162900    
   1.68750000      0.324999988      0.973696351      -4.67808032E-03  0.973707616    
   1.68750000      0.375000000      0.984332561      -3.50208092E-03  0.984338760    
   1.68750000      0.425000012      0.988506794      -2.28276593E-03  0.988509417    
   1.68750000      0.475000024      0.989885926      -1.04654871E-03  0.989886463    
   1.68750000      0.524999976      0.989887238       1.93885455E-04  0.989887297    
   1.68750000      0.575000048      0.988511026       1.42994383E-03  0.988512039    
   1.68750000      0.625000000      0.984338164       2.64937500E-03  0.984341741    
   1.68750000      0.675000012      0.973699212       3.82597232E-03  0.973706722    
   1.68750000      0.725000024      0.949137926       4.90533561E-03  0.949150622    
   1.68750000      0.774999976      0.897905231       5.78429364E-03  0.897923887    
   1.68750000      0.825000048      0.802528024       6.27980568E-03  0.802552640    
   1.68750000      0.875000000      0.646480560       6.07621670E-03  0.646509111    
   1.68750000      0.925000012      0.425257862       4.64179460E-03  0.425283194    
   1.68750000      0.975000024      0.153223798       1.76692486E-03  0.153233990    
   1.68750000       1.00000000       0.00000000       0.00000000       0.00000000    
   1.81250000       0.00000000       0.00000000       0.00000000       0.00000000    
   1.81250000       2.50000004E-02  0.149624512      -2.15838104E-03  0.149640083    
   1.81250000       7.50000030E-02  0.415395796      -5.43859228E-03  0.415431410    
   1.81250000      0.125000000      0.632671893      -6.89367671E-03  0.632709444    
   1.81250000      0.175000012      0.786437631      -7.10918196E-03  0.786469758    
   1.81250000      0.224999994      0.880530000      -6.62172213E-03  0.880554914    
   1.81250000      0.275000006      0.931071401      -5.74713480E-03  0.931089103    
   1.81250000      0.324999988      0.955288172      -4.67018504E-03  0.955299556    
   1.81250000      0.375000000      0.965771675      -3.49523546E-03  0.965777993    
   1.81250000      0.425000012      0.969883263      -2.27681082E-03  0.969885945    
   1.81250000      0.475000024      0.971240938      -1.04126509E-03  0.971241474    
   1.81250000      0.524999976      0.971242487       1.98566850E-04  0.971242547    
   1.81250000      0.575000048      0.969887733       1.43392745E-03  0.969888806    
   1.81250000      0.625000000      0.965777457       2.65247887E-03  0.965781093    
   1.81250000      0.675000012      0.955291152       3.82783683E-03  0.955298841    
   1.81250000      0.725000024      0.931064487       4.90520708E-03  0.931077421    
   1.81250000      0.774999976      0.880501807       5.78035694E-03  0.880520821    