 TITLE= "TESTPLOT" 
 VARIABLES="x","y","fx","fy","magf" 
 ZONE T="1", I=          81 , J=          21
   0.00000000       0.00000000       1.00000000       0.00000000       1.00000000    
   0.00000000       2.50000004E-02   1.00000000       0.00000000       1.00000000    
   0.00000000       7.50000030E-02   1.00000000       0.00000000       1.00000000    
   0.00000000      0.125000000       1.00000000       0.00000000       1.00000000    
   0.00000000      0.175000012       1.00000000       0.00000000       1.00000000    
   0.00000000      0.224999994       1.00000000       0.00000000       1.00000000    
   0.00000000      0.275000006       1.00000000       0.00000000       1.00000000    
   0.00000000      0.324999988       1.00000000       0.00000000       1.00000000    
   0.00000000      0.375000000       1.00000000       0.00000000       1.00000000    
   0.00000000      0.425000012       1.00000000       0.00000000       1.00000000    
   0.00000000      0.475000024       1.00000000       0.00000000       1.00000000    
   0.00000000      0.524999976       1.00000000       0.00000000       1.00000000    
   0.00000000      0.575000048       1.00000000       0.00000000       1.00000000    
   0.00000000      0.625000000       1.00000000       0.00000000       1.00000000    
   0.00000000      0.675000012       1.00000000       0.00000000       1.00000000    
   0.00000000      0.725000024       1.00000000       0.00000000       1.00000000    
   0.00000000      0.774999976       1.00000000       0.00000000       1.00000000    
   0.00000000      0.825000048       1.00000000       0.00000000       1.00000000    
   0.00000000      0.875000000       1.00000000       0.00000000       1.00000000    
   0.00000000      0.925000012       1.00000000       0.00000000       1.00000000    
   0.00000000      0.975000024       1.00000000       0.00000000       1.00000000    
   0.00000000       1.00000000       1.00000000       0.00000000       1.00000000    
   6.25000000E-02   0.00000000      0.500000000       0.00000000      0.500000000    
   6.25000000E-02   2.50000004E-02  0.716372371      0.111082986      0.724933624    
   6.25000000E-02   7.50000030E-02  0.919958889      0.251635879      0.953753114    
   6.25000000E-02  0.125000000       1.01071787      0.274276137       1.04727173    
   6.25000000E-02  0.175000012       1.04558933      0.246670127       1.07429194    
   6.25000000E-02  0.224999994       1.05377793      0.201842725       1.07293451    
   6.25000000E-02  0.275000006       1.05048323      0.155058935       1.06186545    
   6.25000000E-02  0.324999988       1.04347801      0.112395525       1.04951370    
   6.25000000E-02  0.375000000       1.03654921       7.53058195E-02   1.03928113    
   6.25000000E-02  0.425000012       1.03140235       4.30464149E-02   1.03230023    
   6.25000000E-02  0.475000024       1.02872086       1.39183272E-02   1.02881503    
   6.25000000E-02  0.524999976       1.02872682      -1.41396802E-02   1.02882397    
   6.25000000E-02  0.575000048       1.03142047      -4.32774723E-02   1.03232801    
   6.25000000E-02  0.625000000       1.03658056      -7.55565464E-02   1.03933060    
   6.25000000E-02  0.675000012       1.04352379     -0.112676740       1.04958940    
   6.25000000E-02  0.725000024       1.05054545     -0.155382767       1.06197441    
   6.25000000E-02  0.774999976       1.05385697     -0.202221960       1.07308352    
   6.25000000E-02  0.825000048       1.04568338     -0.247116297       1.07448602    
   6.25000000E-02  0.875000000       1.01082027     -0.274796605       1.04750693    
   6.25000000E-02  0.925000012      0.920057535     -0.252220631      0.954002678    
   6.25000000E-02  0.975000024      0.716442347     -0.111388415      0.725049675    
   6.25000000E-02   1.00000000      0.500000000       0.00000000      0.500000000    
  0.187500000       0.00000000       0.00000000       0.00000000       0.00000000    
  0.187500000       2.50000004E-02  0.338592321       3.52725610E-02  0.340424597    
  0.187500000       7.50000030E-02  0.729724646      0.112050004      0.738277197    
  0.187500000      0.125000000      0.947837830      0.180424824      0.964857340    
  0.187500000      0.175000012       1.06118453      0.216724500       1.08308911    
  0.187500000      0.224999994       1.11296201      0.221424595       1.13477457    
  0.187500000      0.275000006       1.13060868      0.202271283       1.14855981    
  0.187500000      0.324999988       1.13125157      0.167562902       1.14359415    
  0.187500000      0.375000000       1.12526274      0.123845994       1.13205743    
  0.187500000      0.425000012       1.11865890       7.55056590E-02   1.12120414    
  0.187500000      0.475000024       1.11466932       2.51399744E-02   1.11495280    
  0.187500000      0.524999976       1.11468768      -2.57776342E-02   1.11498570    
  0.187500000      0.575000048       1.11871314      -7.61531517E-02   1.12130213    
  0.187500000      0.625000000       1.12535310     -0.124511823       1.13222027    
  0.187500000      0.675000012       1.13137603     -0.168252796       1.14381850    
  0.187500000      0.725000024       1.13076544     -0.202986687       1.14884031    
  0.187500000      0.774999976       1.11314547     -0.222161919       1.13509858    
  0.187500000      0.825000048       1.06138325     -0.217474192       1.08343399    
  0.187500000      0.875000000      0.948035121     -0.181171894      0.965191066    
  0.187500000      0.925000012      0.729896545     -0.112768061      0.738556445    
  0.187500000      0.975000024      0.338702440      -3.56198698E-02  0.340570301    
  0.187500000       1.00000000       0.00000000       0.00000000       0.00000000    
  0.312500000       0.00000000       0.00000000       0.00000000       0.00000000    
  0.312500000       2.50000004E-02  0.212806016       1.02650700E-02  0.213053450    
  0.312500000       7.50000030E-02  0.558368444       4.24229950E-02  0.559977710    
  0.312500000      0.125000000      0.813120008       8.61947313E-02  0.817675769    
  0.312500000      0.175000012      0.987193525      0.123104677      0.994839609    
  0.312500000      0.224999994       1.09785879      0.143772304       1.10723281    
  0.312500000      0.275000006       1.16281891      0.145814791       1.17192566    
  0.312500000      0.324999988       1.19737041      0.130924717       1.20450699    
  0.312500000      0.375000000       1.21347475      0.102642968       1.21780813    
  0.312500000      0.425000012       1.21970630       6.50134534E-02   1.22143781    
  0.312500000      0.475000024       1.22151709       2.19552256E-02   1.22171438    
  0.312500000      0.524999976       1.22154093      -2.28736363E-02   1.22175503    
  0.312500000      0.575000048       1.21977592      -6.59309328E-02   1.22155643    
  0.312500000      0.625000000       1.21358585     -0.103556752       1.21799612    
  0.312500000      0.675000012       1.19751382     -0.131829992       1.20474827    
  0.312500000      0.725000024       1.16298342     -0.146704316       1.17219996    
  0.312500000      0.774999976       1.09803009     -0.144636258       1.10751510    
  0.312500000      0.825000048      0.987354279     -0.123932421      0.995101869    
  0.312500000      0.875000000      0.813255072      -8.69772583E-02  0.817892909    
  0.312500000      0.925000012      0.558465838      -4.31479588E-02  0.560130239    
  0.312500000      0.975000024      0.212859869      -1.06110359E-02  0.213124186    
  0.312500000       1.00000000       0.00000000       0.00000000       0.00000000    
  0.437500000       0.00000000       0.00000000       0.00000000       0.00000000    
  0.437500000       2.50000004E-02  0.168272465       2.77135265E-03  0.168295279    
  0.437500000       7.50000030E-02  0.466591239       1.52158691E-02  0.466839254    
  0.437500000      0.125000000      0.715045452       3.71016674E-02  0.716007352    
  0.437500000      0.175000012      0.910161674       5.99604771E-02  0.912134588    
  0.437500000      0.224999994       1.05513430       7.69256353E-02   1.05793476    
  0.437500000      0.275000006       1.15716672       8.39660540E-02   1.16020906    
  0.437500000      0.324999988       1.22504592       7.97802061E-02   1.22764099    
  0.437500000      0.375000000       1.26735103       6.51751086E-02   1.26902580    
  0.437500000      0.425000012       1.29127836       4.23593298E-02   1.29197299    
  0.437500000      0.475000024       1.30193388       1.43561717E-02   1.30201304    
  0.437500000      0.524999976       1.30195093      -1.54116889E-02   1.30204213    
  0.437500000      0.575000048       1.29132569      -4.34043966E-02   1.29205501    
  0.437500000      0.625000000       1.26742113      -6.61987066E-02   1.26914871    
  0.437500000      0.675000012       1.22512770      -8.07712749E-02   1.22778738    
  0.437500000      0.725000024       1.15724730      -8.49141479E-02   1.16035843    
  0.437500000      0.774999976       1.05520058      -7.78220892E-02   1.05806649    
  0.437500000      0.825000048      0.910203099      -6.07998446E-02  0.912231505    
  0.437500000      0.875000000      0.715061426      -3.78832370E-02  0.716064274    
  0.437500000      0.925000012      0.466590822      -1.59362294E-02  0.466862887    
  0.437500000      0.975000024      0.168278843      -3.11510591E-03  0.168307677    
  0.437500000       1.00000000       0.00000000       0.00000000       0.00000000    
  0.562500000       0.00000000       0.00000000       0.00000000       0.00000000    
  0.562500000       2.50000004E-02  0.149326444       3.01762248E-05  0.149326444    
  0.562500000       7.50000030E-02  0.420265675       3.77263338E-03  0.420282602    
  0.562500000      0.125000000      0.657086492       1.33174993E-02  0.657221437    
  0.562500000      0.175000012      0.855827928       2.51020342E-02  0.856195986    
  0.562500000      0.224999994       1.01567578       3.53844315E-02   1.01629198    
  0.562500000      0.275000006       1.13864517       4.12686989E-02   1.13939285    
  0.562500000      0.324999988       1.22867751       4.11442332E-02   1.22936618    
  0.562500000      0.375000000       1.29054284       3.47541869E-02   1.29101074    
  0.562500000      0.425000012       1.32880473       2.30168421E-02   1.32900405    
  0.562500000      0.475000024       1.34698439       7.72321736E-03   1.34700656    
  0.562500000      0.524999976       1.34698546      -8.80894717E-03   1.34701431    
  0.562500000      0.575000048       1.32880473      -2.40874439E-02   1.32902300    
  0.562500000      0.625000000       1.29053473      -3.57960016E-02   1.29103112    
  0.562500000      0.675000012       1.22865295      -4.21449617E-02   1.22937560    
  0.562500000      0.725000024       1.13859701      -4.22177389E-02   1.13937938    
  0.562500000      0.774999976       1.01560044      -3.62752527E-02   1.01624811    
  0.562500000      0.825000048      0.855727255      -2.59331688E-02  0.856120110    
  0.562500000      0.875000000      0.656975746      -1.40913818E-02  0.657126844    
  0.562500000      0.925000012      0.420173138      -4.48812079E-03  0.420197129    
  0.562500000      0.975000024      0.149294257      -3.72520037E-04  0.149294719    
  0.562500000       1.00000000       0.00000000       0.00000000       0.00000000    
  0.687500000       0.00000000       0.00000000       0.00000000       0.00000000    
  0.687500000       2.50000004E-02  0.140134349      -1.13011571E-03  0.140138909    
  0.687500000       7.50000030E-02  0.395941257      -1.38742931E-03  0.395943701    
  0.687500000      0.125000000      0.623780072       1.83706742E-03  0.623782754    
  0.687500000      0.175000012      0.820879281       7.08108209E-03  0.820909798    
  0.687500000      0.224999994      0.985794306       1.24616306E-02  0.985873044    
  0.687500000      0.275000006       1.11859000       1.62846148E-02   1.11870861    
  0.687500000      0.324999988       1.22063160       1.73830241E-02   1.22075534    
  0.687500000      0.375000000       1.29410279       1.53017426E-02   1.29419327    
  0.687500000      0.425000012       1.34138393       1.03179002E-02   1.34142363    
  0.687500000      0.475000024       1.36445713       3.32509330E-03   1.36446118    
  0.687500000      0.524999976       1.36443925      -4.37896606E-03   1.36444628    
  0.687500000      0.575000048       1.34132814      -1.13567645E-02   1.34137619    
  0.687500000      0.625000000       1.29400611      -1.63116623E-02   1.29410887    
  0.687500000      0.675000012       1.22049189      -1.83525421E-02   1.22062981    
  0.687500000      0.725000024       1.11840808      -1.72052570E-02   1.11854041    
  0.687500000      0.774999976      0.985577822      -1.33285094E-02  0.985667944    
  0.687500000      0.825000048      0.820643485      -7.89360423E-03  0.820681453    
  0.687500000      0.875000000      0.623554587      -2.59897462E-03  0.623560011    
  0.687500000      0.925000012      0.395768881       6.77331758E-04  0.395769447    
  0.687500000      0.975000024      0.140070185       7.89036858E-04  0.140072405    
  0.687500000       1.00000000       0.00000000       0.00000000       0.00000000    
  0.812500000       0.00000000       0.00000000       0.00000000       0.00000000    
  0.812500000       2.50000004E-02  0.135133505      -1.64635619E-03  0.135143533    
  0.812500000       7.50000030E-02  0.382073104      -3.76281142E-03  0.382091612    
  0.812500000      0.125000000      0.603594720      -3.64867458E-03  0.603605747    
  0.812500000      0.175000012      0.797828674      -1.87168387E-03  0.797830880    
  0.812500000      0.224999994      0.963468313       6.29543327E-04  0.963468492    
  0.812500000      0.275000006       1.09995079       2.92574754E-03   1.09995472    
  0.812500000      0.324999988       1.20745516       4.28746082E-03   1.20746279    
  0.812500000      0.375000000       1.28672671       4.32413258E-03   1.28673398    
  0.812500000      0.425000012       1.33876753       3.03966040E-03   1.33877099    
  0.812500000      0.475000024       1.36449790       7.97421497E-04   1.36449814    
  0.812500000      0.524999976       1.36446238      -1.78928836E-03   1.36446357    
  0.812500000      0.575000048       1.33866000      -4.01866436E-03   1.33866596    
  0.812500000      0.625000000       1.28654802      -5.27858827E-03   1.28655887    
  0.812500000      0.675000012       1.20721066      -5.20744361E-03   1.20722187    
  0.812500000      0.725000024       1.09965038      -3.80479172E-03   1.09965694    
  0.812500000      0.774999976      0.963129282      -1.46461360E-03  0.963130414    
  0.812500000      0.825000048      0.797478437       1.08062290E-03  0.797479153    
  0.812500000      0.875000000      0.603273988       2.89914454E-03  0.603280962    
  0.812500000      0.925000012      0.381835401       3.05817695E-03  0.381847650    
  0.812500000      0.975000024      0.135044038       1.30653614E-03  0.135050356    
  0.812500000       1.00000000       0.00000000       0.00000000       0.00000000    
  0.937500000       0.00000000       0.00000000       0.00000000       0.00000000    
  0.937500000       2.50000004E-02  0.131992131      -1.87384686E-03  0.132005438    
  0.937500000       7.50000030E-02  0.373113573      -4.83831204E-03  0.373144954    
  0.937500000      0.125000000      0.589964986      -6.19953778E-03  0.589997530    
  0.937500000      0.175000012      0.781198859      -6.14594715E-03  0.781223059    
  0.937500000      0.224999994      0.945721507      -5.16500184E-03  0.945735633    
  0.937500000      0.275000006       1.08280516      -3.77080915E-03   1.08281171    
  0.937500000      0.324999988       1.19212723      -2.40902090E-03   1.19212973    
  0.937500000      0.375000000       1.27371645      -1.37591711E-03   1.27371716    
  0.937500000      0.425000012       1.32782412      -7.75250199E-04   1.32782435    
  0.937500000      0.475000024       1.35475326      -5.23002353E-04   1.35475338    
  0.937500000      0.524999976       1.35470295      -3.99718876E-04   1.35470295    
  0.937500000      0.575000048       1.32767427      -1.37294104E-04   1.32767427    
  0.937500000      0.625000000       1.27347147       4.82412172E-04   1.27347159    
  0.937500000      0.675000012       1.19179785       1.54175959E-03   1.19179881    
  0.937500000      0.725000024       1.08240914       2.93503655E-03   1.08241308    
  0.937500000      0.774999976      0.945285201       4.36316710E-03  0.945295274    
  0.937500000      0.825000048      0.780758977       5.37795108E-03  0.780777454    
  0.937500000      0.875000000      0.589570403       5.46356291E-03  0.589595735    
  0.937500000      0.925000012      0.372826099       4.13950486E-03  0.372849077    
  0.937500000      0.975000024      0.131883681       1.53532054E-03  0.131892622    
  0.937500000       1.00000000       0.00000000       0.00000000       0.00000000    
   1.06250000       0.00000000       0.00000000       0.00000000       0.00000000    
   1.06250000       2.50000004E-02  0.129658699      -1.96947320E-03  0.129673660    
   1.06250000       7.50000030E-02  0.366391540      -5.30415308E-03  0.366429925    
   1.06250000      0.125000000      0.579455733      -7.33341416E-03  0.579502165    
   1.06250000      0.175000012      0.767780781      -8.08957405E-03  0.767823398    
   1.06250000      0.224999994      0.930427432      -7.85446912E-03  0.930460572    
   1.06250000      0.275000006       1.06664968      -6.93555549E-03   1.06667233    
   1.06250000      0.324999988       1.17592907      -5.62154735E-03   1.17594254    
   1.06250000      0.375000000       1.25796819      -4.14101128E-03   1.25797498    
   1.06250000      0.425000012       1.31264687      -2.63602193E-03   1.31264949    
   1.06250000      0.475000024       1.33994758      -1.15960289E-03   1.33994806    
   1.06250000      0.524999976       1.33988643       3.01587628E-04   1.33988643    
   1.06250000      0.575000048       1.31246471       1.78521324E-03   1.31246591    
   1.06250000      0.625000000       1.25767326       3.30405869E-03   1.25767767    
   1.06250000      0.675000012       1.17553663       4.80380468E-03   1.17554641    
   1.06250000      0.725000024       1.06618285       6.14055386E-03   1.06620049    
   1.06250000      0.774999976      0.929919720       7.08379177E-03  0.929946721    
   1.06250000      0.825000048      0.767276168       7.34290108E-03  0.767311275    
   1.06250000      0.875000000      0.579009056       6.60978910E-03  0.579046786    
   1.06250000      0.925000012      0.366069496       4.61078249E-03  0.366098523    
   1.06250000      0.975000024      0.129537493       1.63225573E-03  0.129547775    
   1.06250000       1.00000000       0.00000000       0.00000000       0.00000000    
   1.18750000       0.00000000       0.00000000       0.00000000       0.00000000    
   1.18750000       2.50000004E-02  0.127657562      -2.00658385E-03  0.127673343    
   1.18750000       7.50000030E-02  0.360641003      -5.49218804E-03  0.360682815    
   1.18750000      0.125000000      0.570356131      -7.80533813E-03  0.570409536    
   1.18750000      0.175000012      0.755871832      -8.91877711E-03  0.755924463    
   1.18750000      0.224999994      0.916343927      -9.02570132E-03  0.916388392    
   1.18750000      0.275000006       1.05104733      -8.33717175E-03   1.05108035    
   1.18750000      0.324999988       1.15939713      -7.06306426E-03   1.15941858    
   1.18750000      0.375000000       1.24096012      -5.39251184E-03   1.24097192    
   1.18750000      0.425000012       1.29544878      -3.47982347E-03   1.29545343    
   1.18750000      0.475000024       1.32269502      -1.44069479E-03   1.32269573    
   1.18750000      0.524999976       1.32262659       6.38433732E-04   1.32262671    
   1.18750000      0.575000048       1.29524505       2.68220669E-03   1.29524779    
   1.18750000      0.625000000       1.24063027       4.60403366E-03   1.24063885    
   1.18750000      0.675000012       1.15896070       6.28709234E-03   1.15897775    
   1.18750000      0.725000024       1.05053246       7.57603999E-03   1.05055976    
   1.18750000      0.774999976      0.915788949       8.28056969E-03  0.915826380    
   1.18750000      0.825000048      0.755324841       8.18953477E-03  0.755369246    
   1.18750000      0.875000000      0.569875956       7.09164608E-03  0.569920123    
   1.18750000      0.925000012      0.360297352       4.80276532E-03  0.360329360    
   1.18750000      0.975000024      0.127528533       1.67012517E-03  0.127539471    
   1.18750000       1.00000000       0.00000000       0.00000000       0.00000000    
   1.31250000       0.00000000       0.00000000       0.00000000       0.00000000    
   1.31250000       2.50000004E-02  0.125780135      -2.01875530E-03  0.125796333    
   1.31250000       7.50000030E-02  0.355281919      -5.55892242E-03  0.355325431    
   1.31250000      0.125000000      0.561851859      -7.98223168E-03  0.561908543    
   1.31250000      0.175000012      0.744626641      -9.24157072E-03  0.744683981    
   1.31250000      0.224999994      0.902817011      -9.49413795E-03  0.902866900    
   1.31250000      0.275000006       1.03572369      -8.90904106E-03   1.03576195    
   1.31250000      0.324999988       1.14274776      -7.65979197E-03   1.14277339    
   1.31250000      0.375000000       1.22340751      -5.91492048E-03   1.22342181    
   1.31250000      0.425000012       1.27734804      -3.83126293E-03   1.27735376    
   1.31250000      0.475000024       1.30433702      -1.55159982E-03   1.30433786    
   1.31250000      0.524999976       1.30426359       7.92957260E-04   1.30426383    
   1.31250000      0.575000048       1.27713013       3.07562342E-03   1.27713382    
   1.31250000      0.625000000       1.22305584       5.16470987E-03   1.22306681    
   1.31250000      0.675000012       1.14228415       6.91690529E-03   1.14230514    
   1.31250000      0.725000024       1.03517973       8.17466807E-03   1.03521204    
   1.31250000      0.774999976      0.902233839       8.76869448E-03  0.902276456    
   1.31250000      0.825000048      0.744054914       8.52538645E-03  0.744103730    
   1.31250000      0.875000000      0.561352968       7.27621466E-03  0.561400115    
   1.31250000      0.925000012      0.354926467       4.87296144E-03  0.354959935    
   1.31250000      0.975000024      0.125646889       1.68312003E-03  0.125658169    
   1.31250000       1.00000000       0.00000000       0.00000000       0.00000000    
   1.43750000       0.00000000       0.00000000       0.00000000       0.00000000    
   1.43750000       2.50000004E-02  0.123940542      -2.02147779E-03  0.123957023    
   1.43750000       7.50000030E-02  0.350062072      -5.57737052E-03  0.350106508    
   1.43750000      0.125000000      0.553575575      -8.03701393E-03  0.553633928    
   1.43750000      0.175000012      0.733649671      -9.34878364E-03  0.733709216    
   1.43750000      0.224999994      0.889527321      -9.65731591E-03  0.889579773    
   1.43750000      0.275000006       1.02053010      -9.11478605E-03   1.02057087    
   1.43750000      0.324999988       1.12606525      -7.87883438E-03   1.12609291    
   1.43750000      0.375000000       1.20563960      -6.10821042E-03   1.20565510    
   1.43750000      0.425000012       1.25887537      -3.95986252E-03   1.25888169    
   1.43750000      0.475000024       1.28551829      -1.58703350E-03   1.28551924    
   1.43750000      0.524999976       1.28544164       8.60857486E-04   1.28544188    
   1.43750000      0.575000048       1.25864935       3.23529309E-03   1.25865352    
   1.43750000      0.625000000       1.20527589       5.38617745E-03   1.20528793    
   1.43750000      0.675000012       1.12558746       7.16008712E-03   1.12561023    
   1.43750000      0.725000024       1.01997125       8.39972496E-03   1.02000582    
   1.43750000      0.774999976      0.888930142       8.94597359E-03  0.888975143    
   1.43750000      0.825000048      0.733066678       8.64169840E-03  0.733117640    
   1.43750000      0.875000000      0.553068876       7.33576296E-03  0.553117573    
   1.43750000      0.925000012      0.349702299       4.89313900E-03  0.349736542    
   1.43750000      0.975000024      0.123806000       1.68616022E-03  0.123817481    
   1.43750000       1.00000000       0.00000000       0.00000000       0.00000000    
   1.56250000       0.00000000       0.00000000       0.00000000       0.00000000    
   1.56250000       2.50000004E-02  0.122107059      -2.02109688E-03  0.122123785    
   1.56250000       7.50000030E-02  0.344880462      -5.57875633E-03  0.344925582    
   1.56250000      0.125000000      0.545373082      -8.04628152E-03  0.545432448    
   1.56250000      0.175000012      0.722768366      -9.37257707E-03  0.722829163    
   1.56250000      0.224999994      0.876328707      -9.69910342E-03  0.876382411    
   1.56250000      0.275000006       1.00539255      -9.17203166E-03   1.00543439    
   1.56250000      0.324999988       1.10937870      -7.94264954E-03   1.10940719    
   1.56250000      0.375000000       1.18779707      -6.16529398E-03   1.18781304    
   1.56250000      0.425000012       1.24026632      -3.99635499E-03   1.24027276    
   1.56250000      0.475000024       1.26652741      -1.59280235E-03   1.26652837    
   1.56250000      0.524999976       1.26645017       8.88994837E-04   1.26645052    
   1.56250000      0.575000048       1.24003720       3.29284649E-03   1.24004161    
   1.56250000      0.625000000       1.18742895       5.46205975E-03   1.18744147    
   1.56250000      0.675000012       1.10889602       7.23988377E-03   1.10891962    
   1.56250000      0.725000024       1.00482929       8.46982189E-03   1.00486505    
   1.56250000      0.774999976      0.875728190       8.99729412E-03  0.875774443    
   1.56250000      0.825000048      0.722183824       8.67179409E-03  0.722235918    
   1.56250000      0.875000000      0.544866443       7.34841172E-03  0.544915974    
   1.56250000      0.925000012      0.344521910       4.89582587E-03  0.344556689    
   1.56250000      0.975000024      0.121973306       1.68603484E-03  0.121984959    
   1.56250000       1.00000000       0.00000000       0.00000000       0.00000000    
   1.68750000       0.00000000       0.00000000       0.00000000       0.00000000    
   1.68750000       2.50000004E-02  0.120270193      -2.01999699E-03  0.120287158    
   1.68750000       7.50000030E-02  0.339701593      -5.57535561E-03  0.339747339    
   1.68750000      0.125000000      0.537185490      -8.04166496E-03  0.537245691    
   1.68750000      0.175000012      0.711912632      -9.36912745E-03  0.711974323    
   1.68750000      0.224999994      0.863158703      -9.69912857E-03  0.863213181    
   1.68750000      0.275000006      0.990276217      -9.17641446E-03  0.990318716    
   1.68750000      0.324999988       1.09269571      -7.94995390E-03   1.09272456    
   1.68750000      0.375000000       1.16993475      -6.17261603E-03   1.16995108    
   1.68750000      0.425000012       1.22161698      -4.00003931E-03   1.22162354    
   1.68750000      0.475000024       1.24748409      -1.58969813E-03   1.24748516    
   1.68750000      0.524999976       1.24740720       8.99871229E-04   1.24740756    
   1.68750000      0.575000048       1.22138834       3.30972252E-03   1.22139287    
   1.68750000      0.625000000       1.16956782       5.48138004E-03   1.16958070    
   1.68750000      0.675000012       1.09221458       7.25733815E-03   1.09223866    
   1.68750000      0.725000024      0.989715755       8.48197471E-03  0.989752114    
   1.68750000      0.774999976      0.862562299       9.00314283E-03  0.862609267    
   1.68750000      0.825000048      0.711333036       8.67239386E-03  0.711385906    
   1.68750000      0.875000000      0.536684036       7.34606991E-03  0.536734343    
   1.68750000      0.925000012      0.339347541       4.89337044E-03  0.339382827    
   1.68750000      0.975000024      0.120138466       1.68514624E-03  0.120150283    
   1.68750000       1.00000000       0.00000000       0.00000000       0.00000000    
   1.81250000       0.00000000       0.00000000       0.00000000       0.00000000    
   1.81250000       2.50000004E-02  0.118428499      -2.01912900E-03  0.118445709    
   1.81250000       7.50000030E-02  0.334515959      -5.57206711E-03  0.334562361    
   1.81250000      0.125000000      0.528993845      -8.03517457E-03  0.529054821    
   1.81250000      0.175000012      0.701057851      -9.36016440E-03  0.701120317    
   1.81250000      0.224999994      0.849993885      -9.68906190E-03  0.850049078    
   1.81250000      0.275000006      0.975166321      -9.16652568E-03  0.975209415    
   1.81250000      0.324999988       1.07601690      -7.94130005E-03   1.07604623    
   1.81250000      0.375000000       1.15207219      -6.16537500E-03   1.15208876    
   1.81250000      0.425000012       1.20296216      -3.99401318E-03   1.20296884    
   1.81250000      0.475000024       1.22843266      -1.58490823E-03   1.22843373    
   1.81250000      0.524999976       1.22835660       9.03360953E-04   1.22835696    
   1.81250000      0.575000048       1.20273638       3.31161451E-03   1.20274091    
   1.81250000      0.625000000       1.15170968       5.48091158E-03   1.15172279    
   1.81250000      0.675000012       1.07554197       7.25410134E-03   1.07556641    
   1.81250000      0.725000024      0.974613547       8.47645476E-03  0.974650383    
   1.81250000      0.774999976      0.849406004       8.99617001E-03  0.849453628    