 TITLE= "TESTPLOT" 
 VARIABLES="x","y","fx","fy","magf" 
 ZONE T="1", I=          81 , J=          21
   0.00000000       0.00000000       1.00000000       0.00000000       1.00000000    
   0.00000000       2.50000004E-02   1.00000000       0.00000000       1.00000000    
   0.00000000       7.50000030E-02   1.00000000       0.00000000       1.00000000    
   0.00000000      0.125000000       1.00000000       0.00000000       1.00000000    
   0.00000000      0.175000012       1.00000000       0.00000000       1.00000000    
   0.00000000      0.224999994       1.00000000       0.00000000       1.00000000    
   0.00000000      0.275000006       1.00000000       0.00000000       1.00000000    
   0.00000000      0.324999988       1.00000000       0.00000000       1.00000000    
   0.00000000      0.375000000       1.00000000       0.00000000       1.00000000    
   0.00000000      0.425000012       1.00000000       0.00000000       1.00000000    
   0.00000000      0.475000024       1.00000000       0.00000000       1.00000000    
   0.00000000      0.524999976       1.00000000       0.00000000       1.00000000    
   0.00000000      0.575000048       1.00000000       0.00000000       1.00000000    
   0.00000000      0.625000000       1.00000000       0.00000000       1.00000000    
   0.00000000      0.675000012       1.00000000       0.00000000       1.00000000    
   0.00000000      0.725000024       1.00000000       0.00000000       1.00000000    
   0.00000000      0.774999976       1.00000000       0.00000000       1.00000000    
   0.00000000      0.825000048       1.00000000       0.00000000       1.00000000    
   0.00000000      0.875000000       1.00000000       0.00000000       1.00000000    
   0.00000000      0.925000012       1.00000000       0.00000000       1.00000000    
   0.00000000      0.975000024       1.00000000       0.00000000       1.00000000    
   0.00000000       1.00000000       1.00000000       0.00000000       1.00000000    
   6.25000000E-02   0.00000000      0.500000000       0.00000000      0.500000000    
   6.25000000E-02   2.50000004E-02  0.716465116      0.110980883      0.725009680    
   6.25000000E-02   7.50000030E-02  0.920029163      0.251333594      0.953741193    
   6.25000000E-02  0.125000000       1.01075923      0.273789346       1.04718423    
   6.25000000E-02  0.175000012       1.04560626      0.246020198       1.07415938    
   6.25000000E-02  0.224999994       1.05372953      0.201065272       1.07274091    
   6.25000000E-02  0.275000006       1.05032253      0.154224709       1.06158495    
   6.25000000E-02  0.324999988       1.04318500      0.111602321       1.04913771    
   6.25000000E-02  0.375000000       1.03613579       7.46545643E-02   1.03882182    
   6.25000000E-02  0.425000012       1.03090167       4.26201746E-02   1.03178227    
   6.25000000E-02  0.475000024       1.02817559       1.37701593E-02   1.02826774    
   6.25000000E-02  0.524999976       1.02818131      -1.39919044E-02   1.02827644    
   6.25000000E-02  0.575000048       1.03092027      -4.28520739E-02   1.03181052    
   6.25000000E-02  0.625000000       1.03616762      -7.49067813E-02   1.03887165    
   6.25000000E-02  0.675000012       1.04323184     -0.111885875       1.04921448    
   6.25000000E-02  0.725000024       1.05038607     -0.154552102       1.06169546    
   6.25000000E-02  0.774999976       1.05380988     -0.201449603       1.07289195    
   6.25000000E-02  0.825000048       1.04570198     -0.246473670       1.07435656    
   6.25000000E-02  0.875000000       1.01086497     -0.274320126       1.04742515    
   6.25000000E-02  0.925000012      0.920131683     -0.251931936      0.953997910    
   6.25000000E-02  0.975000024      0.716538191     -0.111293927      0.725129843    
   6.25000000E-02   1.00000000      0.500000000       0.00000000      0.500000000    
  0.187500000       0.00000000       0.00000000       0.00000000       0.00000000    
  0.187500000       2.50000004E-02  0.339378893       3.49632464E-02  0.341175139    
  0.187500000       7.50000030E-02  0.731078088      0.110872135      0.739437461    
  0.187500000      0.125000000      0.949387789      0.178026810      0.965935111    
  0.187500000      0.175000012       1.06259060      0.213043123       1.08373713    
  0.187500000      0.224999994       1.11376691      0.216686517       1.13464963    
  0.187500000      0.275000006       1.13041425      0.196974531       1.14744723    
  0.187500000      0.324999988       1.12987483      0.162384182       1.14148402    
  0.187500000      0.375000000       1.12277198      0.119501457       1.12911355    
  0.187500000      0.425000012       1.11532176       7.26132989E-02   1.11768305    
  0.187500000      0.475000024       1.11088085       2.41133571E-02   1.11114252    
  0.187500000      0.524999976       1.11089873      -2.47937031E-02   1.11117542    
  0.187500000      0.575000048       1.11537695      -7.33033568E-02   1.11778307    
  0.187500000      0.625000000       1.12286305     -0.120209470       1.12927938    
  0.187500000      0.675000012       1.13000071     -0.163115740       1.14171290    
  0.187500000      0.725000024       1.13057220     -0.197730929       1.14773297    
  0.187500000      0.774999976       1.11395025     -0.217463657       1.13497818    
  0.187500000      0.825000048       1.06278896     -0.213830531       1.08408666    
  0.187500000      0.875000000      0.949585199     -0.178807318      0.966273308    
  0.187500000      0.925000012      0.731250644     -0.111617357      0.739720166    
  0.187500000      0.975000024      0.339490712      -3.53224687E-02  0.341323316    
  0.187500000       1.00000000       0.00000000       0.00000000       0.00000000    
  0.312500000       0.00000000       0.00000000       0.00000000       0.00000000    
  0.312500000       2.50000004E-02  0.215361178       9.72556695E-03  0.215580672    
  0.312500000       7.50000030E-02  0.563490868       4.02431935E-02  0.564926088    
  0.312500000      0.125000000      0.819298029       8.15713331E-02  0.823348761    
  0.312500000      0.175000012      0.992955327      0.115866758      0.999692678    
  0.312500000      0.224999994       1.10160089      0.134370461       1.10976565    
  0.312500000      0.275000006       1.16323698      0.135248438       1.17107320    
  0.312500000      0.324999988       1.19384384      0.120551385       1.19991493    
  0.312500000      0.375000000       1.20618033       9.39127952E-02   1.20983076    
  0.312500000      0.425000012       1.20950484       5.91944382E-02   1.21095252    
  0.312500000      0.475000024       1.20974445       1.99059043E-02   1.20990825    
  0.312500000      0.524999976       1.20976901      -2.08503045E-02   1.20994866    
  0.312500000      0.575000048       1.20957696      -6.01386316E-02   1.21107113    
  0.312500000      0.625000000       1.20629442      -9.48550701E-02   1.21001804    
  0.312500000      0.675000012       1.19399071     -0.121487319       1.20015538    
  0.312500000      0.725000024       1.16340244     -0.136170328       1.17134440    
  0.312500000      0.774999976       1.10176909     -0.135267496       1.11004162    
  0.312500000      0.825000048      0.993109226     -0.116726801      0.999945521    
  0.312500000      0.875000000      0.819422126      -8.23836178E-02  0.823553085    
  0.312500000      0.925000012      0.563576341      -4.09938507E-02  0.565065265    
  0.312500000      0.975000024      0.215408668      -1.00832004E-02  0.215644538    
  0.312500000       1.00000000       0.00000000       0.00000000       0.00000000    
  0.437500000       0.00000000       0.00000000       0.00000000       0.00000000    
  0.437500000       2.50000004E-02  0.173490003       2.09515332E-03  0.173502654    
  0.437500000       7.50000030E-02  0.477568954       1.24596255E-02  0.477731466    
  0.437500000      0.125000000      0.728473783       3.12215574E-02  0.729142547    
  0.437500000      0.175000012      0.922775507       5.07287905E-02  0.924168825    
  0.437500000      0.224999994       1.06357694       6.49124086E-02   1.06555593    
  0.437500000      0.275000006       1.15876055       7.04426765E-02   1.16089976    
  0.437500000      0.324999988       1.21848547       6.64824694E-02   1.22029781    
  0.437500000      0.375000000       1.25294042       5.39696664E-02   1.25410223    
  0.437500000      0.425000012       1.27076411       3.48897949E-02   1.27124298    
  0.437500000      0.475000024       1.27810133       1.17413523E-02   1.27815521    
  0.437500000      0.524999976       1.27812123      -1.27765471E-02   1.27818513    
  0.437500000      0.575000048       1.27082109      -3.59174721E-02   1.27132857    
  0.437500000      0.625000000       1.25302529      -5.49819767E-02   1.25423098    
  0.437500000      0.675000012       1.21858370      -6.74702600E-02   1.22045016    
  0.437500000      0.725000024       1.15885401      -7.13959932E-02   1.16105127    
  0.437500000      0.774999976       1.06364918      -6.58222586E-02   1.06568384    
  0.437500000      0.825000048      0.922814250      -5.15878797E-02  0.924255073    
  0.437500000      0.875000000      0.728477478      -3.20263542E-02  0.729181170    
  0.437500000      0.925000012      0.477551907      -1.32040856E-02  0.477734417    
  0.437500000      0.975000024      0.173485681      -2.45087338E-03  0.173502997    
  0.437500000       1.00000000       0.00000000       0.00000000       0.00000000    
  0.562500000       0.00000000       0.00000000       0.00000000       0.00000000    
  0.562500000       2.50000004E-02  0.157465219      -6.25535031E-04  0.157466456    
  0.562500000       7.50000030E-02  0.437662363       1.12163927E-03  0.437663794    
  0.562500000      0.125000000      0.678472161       7.68821174E-03  0.678515732    
  0.562500000      0.175000012      0.875988960       1.62708387E-02  0.876140058    
  0.562500000      0.224999994       1.02934062       2.38755643E-02   1.02961755    
  0.562500000      0.275000006       1.14161015       2.82817073E-02   1.14196038    
  0.562500000      0.324999988       1.21884370       2.83414256E-02   1.21917319    
  0.562500000      0.375000000       1.26831555       2.39439309E-02   1.26854157    
  0.562500000      0.425000012       1.29689002       1.58065669E-02   1.29698634    
  0.562500000      0.475000024       1.30978489       5.21416310E-03   1.30979526    
  0.562500000      0.524999976       1.30979395      -6.22771634E-03   1.30980873    
  0.562500000      0.575000048       1.29691434      -1.68107133E-02   1.29702330    
  0.562500000      0.625000000       1.26834559      -2.49291137E-02   1.26859057    
  0.562500000      0.675000012       1.21886444      -2.92986669E-02   1.21921659    
  0.562500000      0.725000024       1.14160585      -2.92033255E-02   1.14197934    
  0.562500000      0.774999976       1.02929974      -2.47553587E-02   1.02959740    
  0.562500000      0.825000048      0.875908256      -1.71050373E-02  0.876075268    
  0.562500000      0.875000000      0.678364635      -8.47652275E-03  0.678417623    
  0.562500000      0.925000012      0.437560201      -1.85887201E-03  0.437564135    
  0.562500000      0.975000024      0.157422870       2.71150493E-04  0.157423109    
  0.562500000       1.00000000       0.00000000       0.00000000       0.00000000    
  0.687500000       0.00000000       0.00000000       0.00000000       0.00000000    
  0.687500000       2.50000004E-02  0.150785744      -1.65807619E-03  0.150794864    
  0.687500000       7.50000030E-02  0.418774128      -3.47007718E-03  0.418788493    
  0.687500000      0.125000000      0.651896596      -2.51751416E-03  0.651901484    
  0.687500000      0.175000012      0.847461224       2.84411653E-04  0.847461283    
  0.687500000      0.224999994       1.00393796       3.59963765E-03   1.00394440    
  0.687500000      0.275000006       1.12273514       6.25472004E-03   1.12275255    
  0.687500000      0.324999988       1.20793104       7.46080931E-03   1.20795405    
  0.687500000      0.375000000       1.26499999       6.90056942E-03   1.26501882    
  0.687500000      0.425000012       1.29940391       4.71005309E-03   1.29941237    
  0.687500000      0.475000024       1.31543493       1.38840452E-03   1.31543565    
  0.687500000      0.524999976       1.31543255      -2.33376073E-03   1.31543458    
  0.687500000      0.575000048       1.29939473      -5.64721972E-03   1.29940701    
  0.687500000      0.625000000       1.26497531      -7.82187376E-03   1.26499951    
  0.687500000      0.675000012       1.20787907      -8.35906155E-03   1.20790803    
  0.687500000      0.725000024       1.12264395      -7.12451432E-03   1.12266660    
  0.687500000      0.774999976       1.00380170      -4.43743123E-03   1.00381148    
  0.687500000      0.825000048      0.847285509      -1.08855800E-03  0.847286224    
  0.687500000      0.875000000      0.651704371       1.74657302E-03  0.651706696    
  0.687500000      0.925000012      0.418609679       2.73908209E-03  0.418618619    
  0.687500000      0.975000024      0.150716618       1.30439631E-03  0.150722265    
  0.687500000       1.00000000       0.00000000       0.00000000       0.00000000    
  0.812500000       0.00000000       0.00000000       0.00000000       0.00000000    
  0.812500000       2.50000004E-02  0.147557408      -2.02315254E-03  0.147571281    
  0.812500000       7.50000030E-02  0.408592284      -5.17470296E-03  0.408625036    
  0.812500000      0.125000000      0.636238217      -6.49454165E-03  0.636271358    
  0.812500000      0.175000012      0.828752637      -6.24311529E-03  0.828776181    
  0.812500000      0.224999994      0.984647393      -5.04753925E-03  0.984660327    
  0.812500000      0.275000006       1.10482740      -3.51011753E-03   1.10483301    
  0.812500000      0.324999988       1.19258571      -2.10112426E-03   1.19258749    
  0.812500000      0.375000000       1.25253153      -1.10116554E-03   1.25253201    
  0.812500000      0.425000012       1.28934264      -5.84260852E-04   1.28934276    
  0.812500000      0.475000024       1.30672705      -4.40413598E-04   1.30672717    
  0.812500000      0.524999976       1.30671608      -4.33929672E-04   1.30671620    
  0.812500000      0.575000048       1.28930771      -2.84445880E-04   1.28930783    
  0.812500000      0.625000000       1.25246572       2.43579707E-04   1.25246572    
  0.812500000      0.675000012       1.19247973       1.25917909E-03   1.19248033    
  0.812500000      0.725000024       1.10467339       2.68735690E-03   1.10467672    
  0.812500000      0.774999976      0.984444737       4.24590381E-03  0.984453917    
  0.812500000      0.825000048      0.828512669       5.46335801E-03  0.828530669    
  0.812500000      0.875000000      0.635990679       5.73704205E-03  0.636016548    
  0.812500000      0.925000012      0.408388078       4.44839010E-03  0.408412308    
  0.812500000      0.975000024      0.147471756       1.66997162E-03  0.147481203    
  0.812500000       1.00000000       0.00000000       0.00000000       0.00000000    
  0.937500000       0.00000000       0.00000000       0.00000000       0.00000000    
  0.937500000       2.50000004E-02  0.145461917      -2.13056360E-03  0.145477518    
  0.937500000       7.50000030E-02  0.401596546      -5.71045000E-03  0.401637137    
  0.937500000      0.125000000      0.624939084      -7.81795569E-03  0.624987960    
  0.937500000      0.175000012      0.814349890      -8.52395035E-03  0.814394474    
  0.937500000      0.224999994      0.968419313      -8.19804333E-03  0.968454063    
  0.937500000      0.275000006       1.08788276      -7.19526410E-03   1.08790648    
  0.937500000      0.324999988       1.17573464      -5.81376441E-03   1.17574906    
  0.937500000      0.375000000       1.23621726      -4.27474501E-03   1.23622465    
  0.937500000      0.425000012       1.27363813      -2.71099783E-03   1.27364099    
  0.937500000      0.475000024       1.29140723      -1.17188599E-03   1.29140782    
  0.937500000      0.524999976       1.29139054       3.52690520E-04   1.29139066    
  0.937500000      0.575000048       1.27358627       1.89473992E-03   1.27358770    
  0.937500000      0.625000000       1.23612452       3.46477563E-03   1.23612940    
  0.937500000      0.675000012       1.17559409       5.01296017E-03   1.17560482    
  0.937500000      0.725000024       1.08768940       6.40564691E-03   1.08770823    
  0.937500000      0.774999976      0.968176007       7.42110750E-03  0.968204439    
  0.937500000      0.825000048      0.814071715       7.76045490E-03  0.814108670    
  0.937500000      0.875000000      0.624659240       7.06869783E-03  0.624699235    
  0.937500000      0.925000012      0.401370078       4.98580188E-03  0.401401043    
  0.937500000      0.975000024      0.145367682       1.77683413E-03  0.145378545    
  0.937500000       1.00000000       0.00000000       0.00000000       0.00000000    
   1.06250000       0.00000000       0.00000000       0.00000000       0.00000000    
   1.06250000       2.50000004E-02  0.143630803      -2.15033325E-03  0.143646896    
   1.06250000       7.50000030E-02  0.395542890      -5.82905486E-03  0.395585835    
   1.06250000      0.125000000      0.615086913      -8.15078989E-03  0.615140915    
   1.06250000      0.175000012      0.801514864      -9.15130042E-03  0.801567078    
   1.06250000      0.224999994      0.953426838      -9.12289880E-03  0.953470469    
   1.06250000      0.275000006       1.07145190      -8.33114050E-03   1.07148433    
   1.06250000      0.324999988       1.15845060      -7.00028893E-03   1.15847170    
   1.06250000      0.375000000       1.21850717      -5.31462021E-03   1.21851873    
   1.06250000      0.425000012       1.25576329      -3.41724465E-03   1.25576794    
   1.06250000      0.475000024       1.27348912      -1.41189632E-03   1.27348995    
   1.06250000      0.524999976       1.27346897       6.26500230E-04   1.27346909    
   1.06250000      0.575000048       1.25570142       2.63368199E-03   1.25570416    
   1.06250000      0.625000000       1.21839833       4.53458214E-03   1.21840668    
   1.06250000      0.675000012       1.15828991       6.22525159E-03   1.15830660    
   1.06250000      0.725000024       1.07123637       7.56245200E-03   1.07126307    
   1.06250000      0.774999976      0.953160882       8.36127251E-03  0.953197598    
   1.06250000      0.825000048      0.801216245       8.39705393E-03  0.801260233    
   1.06250000      0.875000000      0.614790440       7.40539609E-03  0.614835024    
   1.06250000      0.925000012      0.395305455       5.10426331E-03  0.395338416    
   1.06250000      0.975000024      0.143532395       1.79570843E-03  0.143543631    
   1.06250000       1.00000000       0.00000000       0.00000000       0.00000000    
   1.18750000       0.00000000       0.00000000       0.00000000       0.00000000    
   1.18750000       2.50000004E-02  0.141784817      -2.14750855E-03  0.141801089    
   1.18750000       7.50000030E-02  0.389636993      -5.82839735E-03  0.389680594    
   1.18750000      0.125000000      0.605569482      -8.17880034E-03  0.605624735    
   1.18750000      0.175000012      0.789112449      -9.24146548E-03  0.789166570    
   1.18750000      0.224999994      0.938819349      -9.29218903E-03  0.938865364    
   1.18750000      0.275000006       1.05521226      -8.56951624E-03   1.05524707    
   1.18750000      0.324999988       1.14105940      -7.27150356E-03   1.14108253    
   1.18750000      0.375000000       1.20036077      -5.56514319E-03   1.20037365    
   1.18750000      0.425000012       1.23717499      -3.59157776E-03   1.23718023    
   1.18750000      0.475000024       1.25470018      -1.46901631E-03   1.25470102    
   1.18750000      0.524999976       1.25467801       7.01757323E-04   1.25467825    
   1.18750000      0.575000048       1.23710775       2.82571302E-03   1.23711097    
   1.18750000      0.625000000       1.20024419       4.80135297E-03   1.20025373    
   1.18750000      0.675000012       1.14088869       6.51067402E-03   1.14090729    
   1.18750000      0.725000024       1.05498600       7.81208742E-03   1.05501497    
   1.18750000      0.774999976      0.938543022       8.53811577E-03  0.938581884    
   1.18750000      0.825000048      0.788804650       8.49113706E-03  0.788850367    
   1.18750000      0.875000000      0.605266213       7.43416045E-03  0.605311871    
   1.18750000      0.925000012      0.389394939       5.10195550E-03  0.389428377    
   1.18750000      0.975000024      0.141684413       1.79158663E-03  0.141695738    
   1.18750000       1.00000000       0.00000000       0.00000000       0.00000000    
   1.31250000       0.00000000       0.00000000       0.00000000       0.00000000    
   1.31250000       2.50000004E-02  0.139857650      -2.14256835E-03  0.139874056    
   1.31250000       7.50000030E-02  0.383651376      -5.80799673E-03  0.383695334    
   1.31250000      0.125000000      0.596032977      -8.14280007E-03  0.596088588    
   1.31250000      0.175000012      0.776747108      -9.20315459E-03  0.776801646    
   1.31250000      0.224999994      0.924268365      -9.26476717E-03  0.924314797    
   1.31250000      0.275000006       1.03900194      -8.55990592E-03   1.03903723    
   1.31250000      0.324999988       1.12363052      -7.27844937E-03   1.12365413    
   1.31250000      0.375000000       1.18209064      -5.58074564E-03   1.18210375    
   1.31250000      0.425000012       1.21838379      -3.60516831E-03   1.21838915    
   1.31250000      0.475000024       1.23566151      -1.47131213E-03   1.23566234    
   1.31250000      0.524999976       1.23563850       7.13876681E-04   1.23563874    
   1.31250000      0.575000048       1.21831405       2.84801750E-03   1.21831739    
   1.31250000      0.625000000       1.18197000       4.82441857E-03   1.18197989    
   1.31250000      0.675000012       1.12345529       6.52329251E-03   1.12347424    
   1.31250000      0.725000024       1.03877139       7.80614093E-03   1.03880072    
   1.31250000      0.774999976      0.923988461       8.51246156E-03  0.924027681    
   1.31250000      0.825000048      0.776436448       8.45286809E-03  0.776482463    
   1.31250000      0.875000000      0.595728159       7.39649870E-03  0.595774114    
   1.31250000      0.925000012      0.383408725       5.07846382E-03  0.383442372    
   1.31250000      0.975000024      0.139757156       1.78486062E-03  0.139768556    
   1.31250000       1.00000000       0.00000000       0.00000000       0.00000000    
   1.43750000       0.00000000       0.00000000       0.00000000       0.00000000    
   1.43750000       2.50000004E-02  0.137846559      -2.13965867E-03  0.137863159    
   1.43750000       7.50000030E-02  0.377546459      -5.79243340E-03  0.377590895    
   1.43750000      0.125000000      0.586395085      -8.10936280E-03  0.586451173    
   1.43750000      0.175000012      0.764308929      -9.15734284E-03  0.764363766    
   1.43750000      0.224999994      0.909668326      -9.21449438E-03  0.909714997    
   1.43750000      0.275000006       1.02275372      -8.51226877E-03   1.02278912    
   1.43750000      0.324999988       1.10616171      -7.23838527E-03   1.10618544    
   1.43750000      0.375000000       1.16376948      -5.55098662E-03   1.16378272    
   1.43750000      0.425000012       1.19952834      -3.58665688E-03   1.19953370    
   1.43750000      0.475000024       1.21654987      -1.46415469E-03   1.21655071    
   1.43750000      0.524999976       1.21652675       7.09625543E-04   1.21652699    
   1.43750000      0.575000048       1.19945765       2.83233542E-03   1.19946098    
   1.43750000      0.625000000       1.16364741       4.79698274E-03   1.16365731    
   1.43750000      0.675000012       1.10598516       6.48448011E-03   1.10600424    
   1.43750000      0.725000024       1.02252197       7.75852986E-03   1.02255142    
   1.43750000      0.774999976      0.909388006       8.46117735E-03  0.909427345    
   1.43750000      0.825000048      0.763998806       8.40523746E-03  0.764045000    
   1.43750000      0.875000000      0.586091161       7.36053567E-03  0.586137354    
   1.43750000      0.925000012      0.377305150       5.05972235E-03  0.377339095    
   1.43750000      0.975000024      0.137746602       1.78019830E-03  0.137758106    
   1.43750000       1.00000000       0.00000000       0.00000000       0.00000000    
   1.56250000       0.00000000       0.00000000       0.00000000       0.00000000    
   1.56250000       2.50000004E-02  0.135759652      -2.13898462E-03  0.135776505    
   1.56250000       7.50000030E-02  0.371328652      -5.78451995E-03  0.371373713    
   1.56250000      0.125000000      0.576650143      -8.08914565E-03  0.576706886    
   1.56250000      0.175000012      0.751779079      -9.12802108E-03  0.751834512    
   1.56250000      0.224999994      0.894991934      -9.18063708E-03  0.895039022    
   1.56250000      0.275000006       1.00644219      -8.47795233E-03   1.00647783    
   1.56250000      0.324999988       1.08863926      -7.20734149E-03   1.08866310    
   1.56250000      0.375000000       1.14540029      -5.52648772E-03   1.14541364    
   1.56250000      0.425000012       1.18062758      -3.57102184E-03   1.18063295    
   1.56250000      0.475000024       1.19739437      -1.45886268E-03   1.19739521    
   1.56250000      0.524999976       1.19737124       7.03978934E-04   1.19737148    
   1.56250000      0.575000048       1.18055677       2.81593623E-03   1.18056011    
   1.56250000      0.625000000       1.14527881       4.77109849E-03   1.14528871    
   1.56250000      0.675000012       1.08846378       6.45152386E-03   1.08848286    
   1.56250000      0.725000024       1.00621188       7.72174727E-03   1.00624156    
   1.56250000      0.774999976      0.894713938       8.42451956E-03  0.894753635    
   1.56250000      0.825000048      0.751471877       8.37277621E-03  0.751518488    
   1.56250000      0.875000000      0.576349318       7.33689032E-03  0.576395988    
   1.56250000      0.925000012      0.371089935       5.04825544E-03  0.371124268    
   1.56250000      0.975000024      0.135660797       1.77769910E-03  0.135672450    
   1.56250000       1.00000000       0.00000000       0.00000000       0.00000000    
   1.68750000       0.00000000       0.00000000       0.00000000       0.00000000    
   1.68750000       2.50000004E-02  0.133603990      -2.13971664E-03  0.133621126    
   1.68750000       7.50000030E-02  0.365009546      -5.78184286E-03  0.365055323    
   1.68750000      0.125000000      0.566807866      -8.07903986E-03  0.566865444    
   1.68750000      0.175000012      0.739161611      -9.11266543E-03  0.739217758    
   1.68750000      0.224999994      0.880236149      -9.16241948E-03  0.880283833    
   1.68750000      0.275000006      0.990059078      -8.45889188E-03  0.990095198    
   1.68750000      0.324999988       1.07105255      -7.18971202E-03   1.07107675    
   1.68750000      0.375000000       1.12697244      -5.51248901E-03   1.12698591    
   1.68750000      0.425000012       1.16167212      -3.56233353E-03   1.16167748    
   1.68750000      0.475000024       1.17818642      -1.45655964E-03   1.17818737    
   1.68750000      0.524999976       1.17816329       6.99517084E-04   1.17816353    
   1.68750000      0.575000048       1.16160226       2.80506443E-03   1.16160560    
   1.68750000      0.625000000       1.12685227       4.75488091E-03   1.12686229    
   1.68750000      0.675000012       1.07087898       6.43150182E-03   1.07089829    
   1.68750000      0.725000024      0.989831388       7.69980531E-03  0.989861369    
   1.68750000      0.774999976      0.879961491       8.40276852E-03  0.880001605    
   1.68750000      0.825000048      0.738858342       8.35350249E-03  0.738905609    
   1.68750000      0.875000000      0.566511035       7.32252793E-03  0.566558361    
   1.68750000      0.925000012      0.364773899       5.04128728E-03  0.364808738    
   1.68750000      0.975000024      0.133506298       1.77635718E-03  0.133518115    
   1.68750000       1.00000000       0.00000000       0.00000000       0.00000000    
   1.81250000       0.00000000       0.00000000       0.00000000       0.00000000    
   1.81250000       2.50000004E-02  0.131383359      -2.14105751E-03  0.131400809    
   1.81250000       7.50000030E-02  0.358597219      -5.78169245E-03  0.358643830    
   1.81250000      0.125000000      0.556877255      -8.07414670E-03  0.556935787    
   1.81250000      0.175000012      0.726462603      -9.10504907E-03  0.726519704    
   1.81250000      0.224999994      0.865403295      -9.15408321E-03  0.865451753    
   1.81250000      0.275000006      0.973602295      -8.45102780E-03  0.973638952    
   1.81250000      0.324999988       1.05339551      -7.18291802E-03   1.05342007    
   1.81250000      0.375000000       1.10847735      -5.50728058E-03   1.10849106    
   1.81250000      0.425000012       1.14265215      -3.55945341E-03   1.14265764    
   1.81250000      0.475000024       1.15891480      -1.45681377E-03   1.15891576    
   1.81250000      0.524999976       1.15889215       6.96195289E-04   1.15889239    
   1.81250000      0.575000048       1.14258325       2.79902201E-03   1.14258671    
   1.81250000      0.625000000       1.10835862       4.74635465E-03   1.10836875    
   1.81250000      0.675000012       1.05322385       6.42098580E-03   1.05324340    
   1.81250000      0.725000024      0.973377466       7.68796541E-03  0.973407865    
   1.81250000      0.774999976      0.865132093       8.39037821E-03  0.865172803    