 TITLE= "TESTPLOT" 
 VARIABLES="x","y","fx","fy","magf" 
 ZONE T="1", I=          81 , J=          21
   0.00000000       0.00000000       1.00000000       0.00000000       1.00000000    
   0.00000000       2.50000004E-02   1.00000000       0.00000000       1.00000000    
   0.00000000       7.50000030E-02   1.00000000       0.00000000       1.00000000    
   0.00000000      0.125000000       1.00000000       0.00000000       1.00000000    
   0.00000000      0.175000012       1.00000000       0.00000000       1.00000000    
   0.00000000      0.224999994       1.00000000       0.00000000       1.00000000    
   0.00000000      0.275000006       1.00000000       0.00000000       1.00000000    
   0.00000000      0.324999988       1.00000000       0.00000000       1.00000000    
   0.00000000      0.375000000       1.00000000       0.00000000       1.00000000    
   0.00000000      0.425000012       1.00000000       0.00000000       1.00000000    
   0.00000000      0.475000024       1.00000000       0.00000000       1.00000000    
   0.00000000      0.524999976       1.00000000       0.00000000       1.00000000    
   0.00000000      0.575000048       1.00000000       0.00000000       1.00000000    
   0.00000000      0.625000000       1.00000000       0.00000000       1.00000000    
   0.00000000      0.675000012       1.00000000       0.00000000       1.00000000    
   0.00000000      0.725000024       1.00000000       0.00000000       1.00000000    
   0.00000000      0.774999976       1.00000000       0.00000000       1.00000000    
   0.00000000      0.825000048       1.00000000       0.00000000       1.00000000    
   0.00000000      0.875000000       1.00000000       0.00000000       1.00000000    
   0.00000000      0.925000012       1.00000000       0.00000000       1.00000000    
   0.00000000      0.975000024       1.00000000       0.00000000       1.00000000    
   0.00000000       1.00000000       1.00000000       0.00000000       1.00000000    
   6.25000000E-02   0.00000000      0.500000000       0.00000000      0.500000000    
   6.25000000E-02   2.50000004E-02  0.716380954      0.111083515      0.724942207    
   6.25000000E-02   7.50000030E-02  0.919971764      0.251636058      0.953765571    
   6.25000000E-02  0.125000000       1.01073027      0.274274796       1.04728329    
   6.25000000E-02  0.175000012       1.04560149      0.246667892       1.07430327    
   6.25000000E-02  0.224999994       1.05378938      0.201840132       1.07294524    
   6.25000000E-02  0.275000006       1.05049396      0.155056357       1.06187570    
   6.25000000E-02  0.324999988       1.04348898      0.112393156       1.04952443    
   6.25000000E-02  0.375000000       1.03656030       7.53036886E-02   1.03929210    
   6.25000000E-02  0.425000012       1.03141332       4.30445708E-02   1.03231120    
   6.25000000E-02  0.475000024       1.02873182       1.39165809E-02   1.02882600    
   6.25000000E-02  0.524999976       1.02873826      -1.41413650E-02   1.02883554    
   6.25000000E-02  0.575000048       1.03143179      -4.32788357E-02   1.03233933    
   6.25000000E-02  0.625000000       1.03659165      -7.55572543E-02   1.03934169    
   6.25000000E-02  0.675000012       1.04353499     -0.112677038       1.04960060    
   6.25000000E-02  0.725000024       1.05055678     -0.155382916       1.06198561    
   6.25000000E-02  0.774999976       1.05386806     -0.202221751       1.07309437    
   6.25000000E-02  0.825000048       1.04569530     -0.247115865       1.07449758    
   6.25000000E-02  0.875000000       1.01083326     -0.274796665       1.04751945    
   6.25000000E-02  0.925000012      0.920070410     -0.252221346      0.954015255    
   6.25000000E-02  0.975000024      0.716451108     -0.111388870      0.725058377    
   6.25000000E-02   1.00000000      0.500000000       0.00000000      0.500000000    
  0.187500000       0.00000000       0.00000000       0.00000000       0.00000000    
  0.187500000       2.50000004E-02  0.338617742       3.52730453E-02  0.340449929    
  0.187500000       7.50000030E-02  0.729763985      0.112049609      0.738316059    
  0.187500000      0.125000000      0.947876453      0.180421650      0.964894652    
  0.187500000      0.175000012       1.06122065      0.216719598       1.08312356    
  0.187500000      0.224999994       1.11299586      0.221419260       1.13480675    
  0.187500000      0.275000006       1.13064075      0.202266023       1.14859045    
  0.187500000      0.324999988       1.13128352      0.167558014       1.14362502    
  0.187500000      0.375000000       1.12529540      0.123841733       1.13208938    
  0.187500000      0.425000012       1.11869121       7.55023286E-02   1.12123621    
  0.187500000      0.475000024       1.11470175       2.51375884E-02   1.11498523    
  0.187500000      0.524999976       1.11472082      -2.57790741E-02   1.11501884    
  0.187500000      0.575000048       1.11874616      -7.61533231E-02   1.12133503    
  0.187500000      0.625000000       1.12538564     -0.124510929       1.13225257    
  0.187500000      0.675000012       1.13140881     -0.168251306       1.14385068    
  0.187500000      0.725000024       1.13079858     -0.202984512       1.14887249    
  0.187500000      0.774999976       1.11317861     -0.222159147       1.13513052    
  0.187500000      0.825000048       1.06141889     -0.217471391       1.08346844    
  0.187500000      0.875000000      0.948073924     -0.181169912      0.965228856    
  0.187500000      0.925000012      0.729936242     -0.112767696      0.738595605    
  0.187500000      0.975000024      0.338728368      -3.56201865E-02  0.340596110    
  0.187500000       1.00000000       0.00000000       0.00000000       0.00000000    
  0.312500000       0.00000000       0.00000000       0.00000000       0.00000000    
  0.312500000       2.50000004E-02  0.212847888       1.02653950E-02  0.213095292    
  0.312500000       7.50000030E-02  0.558434546       4.24222760E-02  0.560043573    
  0.312500000      0.125000000      0.813185215       8.61914307E-02  0.817740262    
  0.312500000      0.175000012      0.987252951      0.123099551      0.994897962    
  0.312500000      0.224999994       1.09791422      0.143766671       1.10728693    
  0.312500000      0.275000006       1.16287231      0.145809591       1.17197800    
  0.312500000      0.324999988       1.19742298      0.130920231       1.20455885    
  0.312500000      0.375000000       1.21352816      0.102639347       1.21786106    
  0.312500000      0.425000012       1.21976006       6.50104657E-02   1.22149122    
  0.312500000      0.475000024       1.22157049       2.19527576E-02   1.22176778    
  0.312500000      0.524999976       1.22159493      -2.28753183E-02   1.22180915    
  0.312500000      0.575000048       1.21983004      -6.59317747E-02   1.22161055    
  0.312500000      0.625000000       1.21363926     -0.103556842       1.21804941    
  0.312500000      0.675000012       1.19756782     -0.131829202       1.20480192    
  0.312500000      0.725000024       1.16303802     -0.146702468       1.17225385    
  0.312500000      0.774999976       1.09808552     -0.144633412       1.10756969    
  0.312500000      0.825000048      0.987413883     -0.123929337      0.995160639    
  0.312500000      0.875000000      0.813320458      -8.69752616E-02  0.817957759    
  0.312500000      0.925000012      0.558533192      -4.31476384E-02  0.560197353    
  0.312500000      0.975000024      0.212903142      -1.06112668E-02  0.213167429    
  0.312500000       1.00000000       0.00000000       0.00000000       0.00000000    
  0.437500000       0.00000000       0.00000000       0.00000000       0.00000000    
  0.437500000       2.50000004E-02  0.168331027       2.77206302E-03  0.168353841    
  0.437500000       7.50000030E-02  0.466684461       1.52158672E-02  0.466932446    
  0.437500000      0.125000000      0.715137541       3.70989889E-02  0.716099143    
  0.437500000      0.175000012      0.910245001       5.99563569E-02  0.912217498    
  0.437500000      0.224999994       1.05521178       7.69211128E-02   1.05801165    
  0.437500000      0.275000006       1.15724158       8.39615166E-02   1.16028345    
  0.437500000      0.324999988       1.22511971       7.97761977E-02   1.22771430    
  0.437500000      0.375000000       1.26742518       6.51718602E-02   1.26909971    
  0.437500000      0.425000012       1.29135227       4.23571840E-02   1.29204679    
  0.437500000      0.475000024       1.30200815       1.43548409E-02   1.30208731    
  0.437500000      0.524999976       1.30202532      -1.54124610E-02   1.30211651    
  0.437500000      0.575000048       1.29140031      -4.34042439E-02   1.29212952    
  0.437500000      0.625000000       1.26749611      -6.61978275E-02   1.26922357    
  0.437500000      0.675000012       1.22520304      -8.07700455E-02   1.22786248    
  0.437500000      0.725000024       1.15732312      -8.49123150E-02   1.16043401    
  0.437500000      0.774999976       1.05527830      -7.78196305E-02   1.05814373    
  0.437500000      0.825000048      0.910287261      -6.07972965E-02  0.912315309    
  0.437500000      0.875000000      0.715153933      -3.78815159E-02  0.716156483    
  0.437500000      0.925000012      0.466685593      -1.59360729E-02  0.466957599    
  0.437500000      0.975000024      0.168339506      -3.11543513E-03  0.168368325    
  0.437500000       1.00000000       0.00000000       0.00000000       0.00000000    
  0.562500000       0.00000000       0.00000000       0.00000000       0.00000000    
  0.562500000       2.50000004E-02  0.149401993       3.10861215E-05  0.149402007    
  0.562500000       7.50000030E-02  0.420386374       3.77334887E-03  0.420403302    
  0.562500000      0.125000000      0.657205582       1.33161331E-02  0.657340467    
  0.562500000      0.175000012      0.855935216       2.50992794E-02  0.856303096    
  0.562500000      0.224999994       1.01577568       3.53811085E-02   1.01639175    
  0.562500000      0.275000006       1.13874173       4.12653238E-02   1.13948917    
  0.562500000      0.324999988       1.22877336       4.11411338E-02   1.22946191    
  0.562500000      0.375000000       1.29063916       3.47513519E-02   1.29110694    
  0.562500000      0.425000012       1.32889915       2.30143517E-02   1.32909846    
  0.562500000      0.475000024       1.34707868       7.72175891E-03   1.34710085    
  0.562500000      0.524999976       1.34708083      -8.80913902E-03   1.34710968    
  0.562500000      0.575000048       1.32890058      -2.40867995E-02   1.32911885    
  0.562500000      0.625000000       1.29063106      -3.57944146E-02   1.29112732    
  0.562500000      0.675000012       1.22874904      -4.21425030E-02   1.22947145    
  0.562500000      0.725000024       1.13869333      -4.22149152E-02   1.13947558    
  0.562500000      0.774999976       1.01569974      -3.62723619E-02   1.01634729    
  0.562500000      0.825000048      0.855834961      -2.59305499E-02  0.856227696    
  0.562500000      0.875000000      0.657094598      -1.40896533E-02  0.657245636    
  0.562500000      0.925000012      0.420294523      -4.48798481E-03  0.420318484    
  0.562500000      0.975000024      0.149370968      -3.72934039E-04  0.149371430    
  0.562500000       1.00000000       0.00000000       0.00000000       0.00000000    
  0.687500000       0.00000000       0.00000000       0.00000000       0.00000000    
  0.687500000       2.50000004E-02  0.140227228      -1.12943084E-03  0.140231773    
  0.687500000       7.50000030E-02  0.396088660      -1.38707901E-03  0.396091074    
  0.687500000      0.125000000      0.623924971       1.83570816E-03  0.623927653    
  0.687500000      0.175000012      0.821009755       7.07888603E-03  0.821040273    
  0.687500000      0.224999994      0.985915661       1.24596301E-02  0.985994399    
  0.687500000      0.275000006       1.11870766       1.62832569E-02   1.11882615    
  0.687500000      0.324999988       1.22074890       1.73820704E-02   1.22087264    
  0.687500000      0.375000000       1.29421997       1.53013449E-02   1.29431045    
  0.687500000      0.425000012       1.34150004       1.03182038E-02   1.34153974    
  0.687500000      0.475000024       1.36457372       3.32531962E-03   1.36457777    
  0.687500000      0.524999976       1.36455703      -4.37936885E-03   1.36456406    
  0.687500000      0.575000048       1.34144533      -1.13573577E-02   1.34149337    
  0.687500000      0.625000000       1.29412270      -1.63118336E-02   1.29422545    
  0.687500000      0.675000012       1.22060835      -1.83519535E-02   1.22074628    
  0.687500000      0.725000024       1.11852455      -1.72035526E-02   1.11865687    
  0.687500000      0.774999976      0.985698044      -1.33257341E-02  0.985788107    
  0.687500000      0.825000048      0.820773363      -7.89059419E-03  0.820811331    
  0.687500000      0.875000000      0.623698533      -2.59667542E-03  0.623703897    
  0.687500000      0.925000012      0.395916343       6.78313663E-04  0.395916939    
  0.687500000      0.975000024      0.140163615       7.89138023E-04  0.140165836    
  0.687500000       1.00000000       0.00000000       0.00000000       0.00000000    
  0.812500000       0.00000000       0.00000000       0.00000000       0.00000000    
  0.812500000       2.50000004E-02  0.135243580      -1.64552487E-03  0.135253593    
  0.812500000       7.50000030E-02  0.382246882      -3.76193970E-03  0.382265389    
  0.812500000      0.125000000      0.603765368      -3.64899635E-03  0.603776395    
  0.812500000      0.175000012      0.797982752      -1.87275978E-03  0.797984958    
  0.812500000      0.224999994      0.963611007       6.28335867E-04  0.963611245    
  0.812500000      0.275000006       1.10008931       2.92500574E-03   1.10009325    
  0.812500000      0.324999988       1.20759273       4.28722147E-03   1.20760036    
  0.812500000      0.375000000       1.28686345       4.32417542E-03   1.28687072    
  0.812500000      0.425000012       1.33890533       3.03943502E-03   1.33890879    
  0.812500000      0.475000024       1.36463749       7.96792214E-04   1.36463773    
  0.812500000      0.524999976       1.36460149      -1.78985682E-03   1.36460268    
  0.812500000      0.575000048       1.33879757      -4.01900522E-03   1.33880353    
  0.812500000      0.625000000       1.28668427      -5.27843786E-03   1.28669512    
  0.812500000      0.675000012       1.20734739      -5.20613510E-03   1.20735860    
  0.812500000      0.725000024       1.09978712      -3.80235678E-03   1.09979367    
  0.812500000      0.774999976      0.963270605      -1.46172743E-03  0.963271737    
  0.812500000      0.825000048      0.797631025       1.08333060E-03  0.797631800    
  0.812500000      0.875000000      0.603443325       2.90089566E-03  0.603450298    
  0.812500000      0.925000012      0.382009089       3.05842073E-03  0.382021338    
  0.812500000      0.975000024      0.135154873       1.30626909E-03  0.135161191    
  0.812500000       1.00000000       0.00000000       0.00000000       0.00000000    
  0.937500000       0.00000000       0.00000000       0.00000000       0.00000000    
  0.937500000       2.50000004E-02  0.132118762      -1.87278667E-03  0.132132038    
  0.937500000       7.50000030E-02  0.373314321      -4.83699189E-03  0.373345673    
  0.937500000      0.125000000      0.590162337      -6.19971752E-03  0.590194881    
  0.937500000      0.175000012      0.781376600      -6.14683377E-03  0.781400800    
  0.937500000      0.224999994      0.945886016      -5.16588846E-03  0.945900142    
  0.937500000      0.275000006       1.08296478      -3.77149042E-03   1.08297133    
  0.937500000      0.324999988       1.19228518      -2.40940857E-03   1.19228768    
  0.937500000      0.375000000       1.27387381      -1.37641409E-03   1.27387452    
  0.937500000      0.425000012       1.32798290      -7.75828783E-04   1.32798314    
  0.937500000      0.475000024       1.35491252      -5.22959977E-04   1.35491264    
  0.937500000      0.524999976       1.35486102      -3.98942939E-04   1.35486102    
  0.937500000      0.575000048       1.32783175      -1.36133443E-04   1.32783175    
  0.937500000      0.625000000       1.27362788       4.83747688E-04   1.27362800    
  0.937500000      0.675000012       1.19195461       1.54346786E-03   1.19195557    
  0.937500000      0.725000024       1.08256698       2.93725589E-03   1.08257091    
  0.937500000      0.774999976      0.945448101       4.36572218E-03  0.945458174    
  0.937500000      0.825000048      0.780934930       5.38065983E-03  0.780953467    
  0.937500000      0.875000000      0.589766145       5.46561228E-03  0.589791477    
  0.937500000      0.925000012      0.373026371       4.13989695E-03  0.373049319    
  0.937500000      0.975000024      0.132010818       1.53500889E-03  0.132019743    
  0.937500000       1.00000000       0.00000000       0.00000000       0.00000000    
   1.06250000       0.00000000       0.00000000       0.00000000       0.00000000    
   1.06250000       2.50000004E-02  0.129802883      -1.96905993E-03  0.129817814    
   1.06250000       7.50000030E-02  0.366619408      -5.30386996E-03  0.366657764    
   1.06250000      0.125000000      0.579679608      -7.33415969E-03  0.579726040    
   1.06250000      0.175000012      0.767981887      -8.09115544E-03  0.768024504    
   1.06250000      0.224999994      0.930613518      -7.85593968E-03  0.930646658    
   1.06250000      0.275000006       1.06682956      -6.93629496E-03   1.06685209    
   1.06250000      0.324999988       1.17610753      -5.62169868E-03   1.17612100    
   1.06250000      0.375000000       1.25814629      -4.14056331E-03   1.25815308    
   1.06250000      0.425000012       1.31282544      -2.63520167E-03   1.31282806    
   1.06250000      0.475000024       1.34012640      -1.15885667E-03   1.34012687    
   1.06250000      0.524999976       1.34006429       3.02191620E-04   1.34006429    
   1.06250000      0.575000048       1.31264162       1.78641325E-03   1.31264281    
   1.06250000      0.625000000       1.25785005       3.30593437E-03   1.25785434    
   1.06250000      0.675000012       1.17571306       4.80582658E-03   1.17572296    
   1.06250000      0.725000024       1.06636095       6.14262093E-03   1.06637871    
   1.06250000      0.774999976      0.930103302       7.08626257E-03  0.930130303    
   1.06250000      0.825000048      0.767474353       7.34566618E-03  0.767509460    
   1.06250000      0.875000000      0.579230309       6.61189388E-03  0.579268038    
   1.06250000      0.925000012      0.366295993       4.61160904E-03  0.366325021    
   1.06250000      0.975000024      0.129681557       1.63230672E-03  0.129691824    
   1.06250000       1.00000000       0.00000000       0.00000000       0.00000000    
   1.18750000       0.00000000       0.00000000       0.00000000       0.00000000    
   1.18750000       2.50000004E-02  0.127818644      -2.00604531E-03  0.127834380    
   1.18750000       7.50000030E-02  0.360894442      -5.49183320E-03  0.360936224    
   1.18750000      0.125000000      0.570604622      -7.80647341E-03  0.570658028    
   1.18750000      0.175000012      0.756095529      -8.92118085E-03  0.756148160    
   1.18750000      0.224999994      0.916551173      -9.02863499E-03  0.916595638    
   1.18750000      0.275000006       1.05124760      -8.33967514E-03   1.05128062    
   1.18750000      0.324999988       1.15959609      -7.06471223E-03   1.15961754    
   1.18750000      0.375000000       1.24115944      -5.39332349E-03   1.24117112    
   1.18750000      0.425000012       1.29564834      -3.47991777E-03   1.29565299    
   1.18750000      0.475000024       1.32289469      -1.44013669E-03   1.32289553    
   1.18750000      0.524999976       1.32282543       6.39975187E-04   1.32282555    
   1.18750000      0.575000048       1.29544187       2.68480927E-03   1.29544461    
   1.18750000      0.625000000       1.24082744       4.60719503E-03   1.24083602    
   1.18750000      0.675000012       1.15915728       6.29056059E-03   1.15917432    
   1.18750000      0.725000024       1.05073047       7.57978484E-03   1.05075777    
   1.18750000      0.774999976      0.915992618       8.28417949E-03  0.916030049    
   1.18750000      0.825000048      0.755544662       8.19268823E-03  0.755589068    
   1.18750000      0.875000000      0.570121169       7.09388684E-03  0.570165277    
   1.18750000      0.925000012      0.360548675       4.80343727E-03  0.360580653    
   1.18750000      0.975000024      0.127689227       1.67000934E-03  0.127700150    
   1.18750000       1.00000000       0.00000000       0.00000000       0.00000000    
   1.31250000       0.00000000       0.00000000       0.00000000       0.00000000    
   1.31250000       2.50000004E-02  0.125956908      -2.01843795E-03  0.125973076    
   1.31250000       7.50000030E-02  0.355560571      -5.55928145E-03  0.355604023    
   1.31250000      0.125000000      0.562125266      -7.98443425E-03  0.562181950    
   1.31250000      0.175000012      0.744873047      -9.24487133E-03  0.744930446    
   1.31250000      0.224999994      0.903045416      -9.49741900E-03  0.903095365    
   1.31250000      0.275000006       1.03594458      -8.91161710E-03   1.03598285    
   1.31250000      0.324999988       1.14296699      -7.66132772E-03   1.14299262    
   1.31250000      0.375000000       1.22362733      -5.91517705E-03   1.22364163    
   1.31250000      0.425000012       1.27756786      -3.83039727E-03   1.27757359    
   1.31250000      0.475000024       1.30455732      -1.55031402E-03   1.30455828    
   1.31250000      0.524999976       1.30448341       7.94428692E-04   1.30448365    
   1.31250000      0.575000048       1.27734828       3.07740038E-03   1.27735198    
   1.31250000      0.625000000       1.22327363       5.16688684E-03   1.22328448    
   1.31250000      0.675000012       1.14250088       6.91964105E-03   1.14252186    
   1.31250000      0.725000024       1.03539765       8.17796960E-03   1.03542995    
   1.31250000      0.774999976      0.902458429       8.77249986E-03  0.902501047    
   1.31250000      0.825000048      0.744297385       8.52925889E-03  0.744346261    
   1.31250000      0.875000000      0.561622739       7.27900863E-03  0.561669886    
   1.31250000      0.925000012      0.355202645       4.87367343E-03  0.355236083    
   1.31250000      0.975000024      0.125822738       1.68291363E-03  0.125833988    
   1.31250000       1.00000000       0.00000000       0.00000000       0.00000000    
   1.43750000       0.00000000       0.00000000       0.00000000       0.00000000    
   1.43750000       2.50000004E-02  0.124132708      -2.02127523E-03  0.124149166    
   1.43750000       7.50000030E-02  0.350365460      -5.57795260E-03  0.350409865    
   1.43750000      0.125000000      0.553873479      -8.03929102E-03  0.553931832    
   1.43750000      0.175000012      0.733918190      -9.35190916E-03  0.733977735    
   1.43750000      0.224999994      0.889775753      -9.66035109E-03  0.889828205    
   1.43750000      0.275000006       1.02077055      -9.11719259E-03   1.02081120    
   1.43750000      0.324999988       1.12630367      -7.88049027E-03   1.12633121    
   1.43750000      0.375000000       1.20587850      -6.10909006E-03   1.20589399    
   1.43750000      0.425000012       1.25911462      -3.96010187E-03   1.25912082    
   1.43750000      0.475000024       1.28575826      -1.58666156E-03   1.28575921    
   1.43750000      0.524999976       1.28568149       8.61939974E-04   1.28568172    
   1.43750000      0.575000048       1.25888836       3.23686562E-03   1.25889254    
   1.43750000      0.625000000       1.20551348       5.38827665E-03   1.20552552    
   1.43750000      0.675000012       1.12582374       7.16299750E-03   1.12584651    
   1.43750000      0.725000024       1.02020907       8.40345770E-03   1.02024364    
   1.43750000      0.774999976      0.889175355       8.95023905E-03  0.889220357    
   1.43750000      0.825000048      0.733331621       8.64590518E-03  0.733382583    
   1.43750000      0.875000000      0.553363562       7.33867474E-03  0.553412199    
   1.43750000      0.925000012      0.350003362       4.89405636E-03  0.350037575    
   1.43750000      0.975000024      0.123997197       1.68615498E-03  0.124008663    
   1.43750000       1.00000000       0.00000000       0.00000000       0.00000000    
   1.56250000       0.00000000       0.00000000       0.00000000       0.00000000    
   1.56250000       2.50000004E-02  0.122313365      -2.02063704E-03  0.122330055    
   1.56250000       7.50000030E-02  0.345206857      -5.57855237E-03  0.345251918    
   1.56250000      0.125000000      0.545693457      -8.04747455E-03  0.545752764    
   1.56250000      0.175000012      0.723057151      -9.37450118E-03  0.723117888    
   1.56250000      0.224999994      0.876595795      -9.70127527E-03  0.876649439    
   1.56250000      0.275000006       1.00565100      -9.17404145E-03   1.00569284    
   1.56250000      0.324999988       1.10963535      -7.94380158E-03   1.10966372    
   1.56250000      0.375000000       1.18805408      -6.16593473E-03   1.18807006    
   1.56250000      0.425000012       1.24052405      -3.99661204E-03   1.24053049    
   1.56250000      0.475000024       1.26678550      -1.59223343E-03   1.26678646    
   1.56250000      0.524999976       1.26670814       8.90036696E-04   1.26670849    
   1.56250000      0.575000048       1.24029517       3.29425326E-03   1.24029958    
   1.56250000      0.625000000       1.18768525       5.46423532E-03   1.18769777    
   1.56250000      0.675000012       1.10915124       7.24246539E-03   1.10917485    
   1.56250000      0.725000024       1.00508595       8.47269967E-03   1.00512159    
   1.56250000      0.774999976      0.875993013       9.00050998E-03  0.876039267    
   1.56250000      0.825000048      0.722470045       8.67495686E-03  0.722522140    
   1.56250000      0.875000000      0.545184493       7.35054445E-03  0.545234025    
   1.56250000      0.925000012      0.344846874       4.89618676E-03  0.344881624    
   1.56250000      0.975000024      0.122179627       1.68580515E-03  0.122191258    
   1.56250000       1.00000000       0.00000000       0.00000000       0.00000000    
   1.68750000       0.00000000       0.00000000       0.00000000       0.00000000    
   1.68750000       2.50000004E-02  0.120490253      -2.01915996E-03  0.120507173    
   1.68750000       7.50000030E-02  0.340050280      -5.57448063E-03  0.340095967    
   1.68750000      0.125000000      0.537527442      -8.04240722E-03  0.537587583    
   1.68750000      0.175000012      0.712220728      -9.37104039E-03  0.712282360    
   1.68750000      0.224999994      0.863443613      -9.70114022E-03  0.863498151    
   1.68750000      0.275000006      0.990551829      -9.17804427E-03  0.990594327    
   1.68750000      0.324999988       1.09296966      -7.95127079E-03   1.09299862    
   1.68750000      0.375000000       1.17020917      -6.17342163E-03   1.17022550    
   1.68750000      0.425000012       1.22189200      -4.00030008E-03   1.22189856    
   1.68750000      0.475000024       1.24775946      -1.58942607E-03   1.24776053    
   1.68750000      0.524999976       1.24768281       9.00821877E-04   1.24768317    
   1.68750000      0.575000048       1.22166348       3.31130391E-03   1.22166800    
   1.68750000      0.625000000       1.16984177       5.48340660E-03   1.16985464    
   1.68750000      0.675000012       1.09248757       7.25994026E-03   1.09251165    
   1.68750000      0.725000024      0.989989758       8.48535076E-03  0.990026116    
   1.68750000      0.774999976      0.862845302       9.00669768E-03  0.862892330    
   1.68750000      0.825000048      0.711639166       8.67533311E-03  0.711692095    
   1.68750000      0.875000000      0.537024260       7.34790508E-03  0.537074506    
   1.68750000      0.925000012      0.339695454       4.89362748E-03  0.339730680    
   1.68750000      0.975000024      0.120358475       1.68482529E-03  0.120370261    
   1.68750000       1.00000000       0.00000000       0.00000000       0.00000000    
   1.81250000       0.00000000       0.00000000       0.00000000       0.00000000    
   1.81250000       2.50000004E-02  0.118662268      -2.01825122E-03  0.118679434    
   1.81250000       7.50000030E-02  0.334886491      -5.57107292E-03  0.334932834    
   1.81250000      0.125000000      0.529357195      -8.03551171E-03  0.529418170    
   1.81250000      0.175000012      0.701384962      -9.36137326E-03  0.701447427    
   1.81250000      0.224999994      0.850296021      -9.69059765E-03  0.850351274    
   1.81250000      0.275000006      0.975458860      -9.16798040E-03  0.975501955    
   1.81250000      0.324999988       1.07630730      -7.94243719E-03   1.07633662    
   1.81250000      0.375000000       1.15236330      -6.16608374E-03   1.15237975    
   1.81250000      0.425000012       1.20325375      -3.99430841E-03   1.20326042    
   1.81250000      0.475000024       1.22872448      -1.58484338E-03   1.22872555    
   1.81250000      0.524999976       1.22864866       9.03942157E-04   1.22864902    
   1.81250000      0.575000048       1.20302784       3.31286760E-03   1.20303237    
   1.81250000      0.625000000       1.15199995       5.48288412E-03   1.15201294    
   1.81250000      0.675000012       1.07583106       7.25692697E-03   1.07585549    
   1.81250000      0.725000024      0.974903822       8.47964920E-03  0.974940717    
   1.81250000      0.774999976      0.849706173       8.99942033E-03  0.849753857    