 TITLE= "TESTPLOT" 
 VARIABLES="x","y","fx","fy","magf" 
 ZONE T="1", I=          81 , J=          21
   0.00000000       0.00000000       1.00000000       0.00000000       1.00000000    
   0.00000000       2.50000004E-02   1.00000000       0.00000000       1.00000000    
   0.00000000       7.50000030E-02   1.00000000       0.00000000       1.00000000    
   0.00000000      0.125000000       1.00000000       0.00000000       1.00000000    
   0.00000000      0.175000012       1.00000000       0.00000000       1.00000000    
   0.00000000      0.224999994       1.00000000       0.00000000       1.00000000    
   0.00000000      0.275000006       1.00000000       0.00000000       1.00000000    
   0.00000000      0.324999988       1.00000000       0.00000000       1.00000000    
   0.00000000      0.375000000       1.00000000       0.00000000       1.00000000    
   0.00000000      0.425000012       1.00000000       0.00000000       1.00000000    
   0.00000000      0.475000024       1.00000000       0.00000000       1.00000000    
   0.00000000      0.524999976       1.00000000       0.00000000       1.00000000    
   0.00000000      0.575000048       1.00000000       0.00000000       1.00000000    
   0.00000000      0.625000000       1.00000000       0.00000000       1.00000000    
   0.00000000      0.675000012       1.00000000       0.00000000       1.00000000    
   0.00000000      0.725000024       1.00000000       0.00000000       1.00000000    
   0.00000000      0.774999976       1.00000000       0.00000000       1.00000000    
   0.00000000      0.825000048       1.00000000       0.00000000       1.00000000    
   0.00000000      0.875000000       1.00000000       0.00000000       1.00000000    
   0.00000000      0.925000012       1.00000000       0.00000000       1.00000000    
   0.00000000      0.975000024       1.00000000       0.00000000       1.00000000    
   0.00000000       1.00000000       1.00000000       0.00000000       1.00000000    
   6.25000000E-02   0.00000000      0.500000000       0.00000000      0.500000000    
   6.25000000E-02   2.50000004E-02  0.716380537      0.111084618      0.724941969    
   6.25000000E-02   7.50000030E-02  0.919972181      0.251639038      0.953766763    
   6.25000000E-02  0.125000000       1.01073146      0.274278998       1.04728556    
   6.25000000E-02  0.175000012       1.04560280      0.246672317       1.07430553    
   6.25000000E-02  0.224999994       1.05379033      0.201844752       1.07294703    
   6.25000000E-02  0.275000006       1.05049503      0.155061245       1.06187749    
   6.25000000E-02  0.324999988       1.04348993      0.112397701       1.04952586    
   6.25000000E-02  0.375000000       1.03656161       7.53076449E-02   1.03929365    
   6.25000000E-02  0.425000012       1.03141499       4.30476815E-02   1.03231299    
   6.25000000E-02  0.475000024       1.02873349       1.39193004E-02   1.02882767    
   6.25000000E-02  0.524999976       1.02873957      -1.41386688E-02   1.02883673    
   6.25000000E-02  0.575000048       1.03143311      -4.32765707E-02   1.03234065    
   6.25000000E-02  0.625000000       1.03659284      -7.55557418E-02   1.03934276    
   6.25000000E-02  0.675000012       1.04353571     -0.112676278       1.04960120    
   6.25000000E-02  0.725000024       1.05055714     -0.155382663       1.06198585    
   6.25000000E-02  0.774999976       1.05386853     -0.202221975       1.07309484    
   6.25000000E-02  0.825000048       1.04569554     -0.247116670       1.07449794    
   6.25000000E-02  0.875000000       1.01083302     -0.274797857       1.04751956    
   6.25000000E-02  0.925000012      0.920069695     -0.252222538      0.954014897    
   6.25000000E-02  0.975000024      0.716449380     -0.111389421      0.725056767    
   6.25000000E-02   1.00000000      0.500000000       0.00000000      0.500000000    
  0.187500000       0.00000000       0.00000000       0.00000000       0.00000000    
  0.187500000       2.50000004E-02  0.338616550       3.52741182E-02  0.340448856    
  0.187500000       7.50000030E-02  0.729765415      0.112052545      0.738317907    
  0.187500000      0.125000000      0.947879791      0.180426016      0.964898765    
  0.187500000      0.175000012       1.06122446      0.216724977       1.08312833    
  0.187500000      0.224999994       1.11299920      0.221425354       1.13481116    
  0.187500000      0.275000006       1.13064432      0.202272266       1.14859509    
  0.187500000      0.324999988       1.13128746      0.167563900       1.14362967    
  0.187500000      0.375000000       1.12529922      0.123847038       1.13209379    
  0.187500000      0.425000012       1.11869538       7.55067170E-02   1.12124074    
  0.187500000      0.475000024       1.11470580       2.51409691E-02   1.11498928    
  0.187500000      0.524999976       1.11472440      -2.57768203E-02   1.11502242    
  0.187500000      0.575000048       1.11874986      -7.61524141E-02   1.12133861    
  0.187500000      0.625000000       1.12538934     -0.124510914       1.13225615    
  0.187500000      0.675000012       1.13141167     -0.168251380       1.14385355    
  0.187500000      0.725000024       1.13080072     -0.202985138       1.14887476    
  0.187500000      0.774999976       1.11318111     -0.222160652       1.13513327    
  0.187500000      0.825000048       1.06142116     -0.217473298       1.08347106    
  0.187500000      0.875000000      0.948075414     -0.181171998      0.965230703    
  0.187500000      0.925000012      0.729935408     -0.112769373      0.738595009    
  0.187500000      0.975000024      0.338724673      -3.56207788E-02  0.340592504    
  0.187500000       1.00000000       0.00000000       0.00000000       0.00000000    
  0.312500000       0.00000000       0.00000000       0.00000000       0.00000000    
  0.312500000       2.50000004E-02  0.212845683       1.02665871E-02  0.213093147    
  0.312500000       7.50000030E-02  0.558436811       4.24254462E-02  0.560046077    
  0.312500000      0.125000000      0.813190579       8.61957669E-02  0.817746043    
  0.312500000      0.175000012      0.987259746      0.123104483      0.994905293    
  0.312500000      0.224999994       1.09792089      0.143771812       1.10729420    
  0.312500000      0.275000006       1.16287875      0.145814732       1.17198503    
  0.312500000      0.324999988       1.19743025      0.130924940       1.20456648    
  0.312500000      0.375000000       1.21353531      0.102643237       1.21786845    
  0.312500000      0.425000012       1.21976697       6.50138184E-02   1.22149837    
  0.312500000      0.475000024       1.22157764       2.19556969E-02   1.22177494    
  0.312500000      0.524999976       1.22160196      -2.28729974E-02   1.22181606    
  0.312500000      0.575000048       1.21983695      -6.59300387E-02   1.22161734    
  0.312500000      0.625000000       1.21364617     -0.103555530       1.21805608    
  0.312500000      0.675000012       1.19757366     -0.131828815       1.20480764    
  0.312500000      0.725000024       1.16304350     -0.146703154       1.17225933    
  0.312500000      0.774999976       1.09809136     -0.144634634       1.10757565    
  0.312500000      0.825000048      0.987419307     -0.123930775      0.995166183    
  0.312500000      0.875000000      0.813324630      -8.69764686E-02  0.817961991    
  0.312500000      0.925000012      0.558532655      -4.31485251E-02  0.560196877    
  0.312500000      0.975000024      0.212898254      -1.06116775E-02  0.213162556    
  0.312500000       1.00000000       0.00000000       0.00000000       0.00000000    
  0.437500000       0.00000000       0.00000000       0.00000000       0.00000000    
  0.437500000       2.50000004E-02  0.168327242       2.77280947E-03  0.168350086    
  0.437500000       7.50000030E-02  0.466686457       1.52180530E-02  0.466934532    
  0.437500000      0.125000000      0.715144336       3.71022485E-02  0.716106117    
  0.437500000      0.175000012      0.910253942       5.99601641E-02  0.912226677    
  0.437500000      0.224999994       1.05522096       7.69252926E-02   1.05802119    
  0.437500000      0.275000006       1.15725100       8.39658082E-02   1.16029310    
  0.437500000      0.324999988       1.22512972       7.97801614E-02   1.22772455    
  0.437500000      0.375000000       1.26743579       6.51753917E-02   1.26911044    
  0.437500000      0.425000012       1.29136324       4.23599966E-02   1.29205775    
  0.437500000      0.475000024       1.30201900       1.43567836E-02   1.30209816    
  0.437500000      0.524999976       1.30203629      -1.54111777E-02   1.30212748    
  0.437500000      0.575000048       1.29141092      -4.34036851E-02   1.29214013    
  0.437500000      0.625000000       1.26750612      -6.61979541E-02   1.26923358    
  0.437500000      0.675000012       1.22521234      -8.07703584E-02   1.22787178    
  0.437500000      0.725000024       1.15733194      -8.49128813E-02   1.16044283    
  0.437500000      0.774999976       1.05528688      -7.78207630E-02   1.05815244    
  0.437500000      0.825000048      0.910295010      -6.07987642E-02  0.912323117    
  0.437500000      0.875000000      0.715159178      -3.78829911E-02  0.716161847    
  0.437500000      0.925000012      0.466684818      -1.59372669E-02  0.466956854    
  0.437500000      0.975000024      0.168332696      -3.11594713E-03  0.168361545    
  0.437500000       1.00000000       0.00000000       0.00000000       0.00000000    
  0.562500000       0.00000000       0.00000000       0.00000000       0.00000000    
  0.562500000       2.50000004E-02  0.149396896       3.15051802E-05  0.149396896    
  0.562500000       7.50000030E-02  0.420388341       3.77479452E-03  0.420405269    
  0.562500000      0.125000000      0.657213926       1.33187007E-02  0.657348871    
  0.562500000      0.175000012      0.855946183       2.51023341E-02  0.856314182    
  0.562500000      0.224999994       1.01578701       3.53843421E-02   1.01640308    
  0.562500000      0.275000006       1.13875365       4.12686169E-02   1.13950121    
  0.562500000      0.324999988       1.22878551       4.11440805E-02   1.22947419    
  0.562500000      0.375000000       1.29065156       3.47538963E-02   1.29111946    
  0.562500000      0.425000012       1.32891262       2.30164938E-02   1.32911193    
  0.562500000      0.475000024       1.34709215       7.72321876E-03   1.34711421    
  0.562500000      0.524999976       1.34709382      -8.80850200E-03   1.34712267    
  0.562500000      0.575000048       1.32891345      -2.40868554E-02   1.32913172    
  0.562500000      0.625000000       1.29064369      -3.57953906E-02   1.29113996    
  0.562500000      0.675000012       1.22876191      -4.21441235E-02   1.22948444    
  0.562500000      0.725000024       1.13870597      -4.22164872E-02   1.13948822    
  0.562500000      0.774999976       1.01571202      -3.62737514E-02   1.01635957    
  0.562500000      0.825000048      0.855845690      -2.59317011E-02  0.856238425    
  0.562500000      0.875000000      0.657102048      -1.40909655E-02  0.657253087    
  0.562500000      0.925000012      0.420294493      -4.48922534E-03  0.420318455    
  0.562500000      0.975000024      0.149363458      -3.73345712E-04  0.149363920    
  0.562500000       1.00000000       0.00000000       0.00000000       0.00000000    
  0.687500000       0.00000000       0.00000000       0.00000000       0.00000000    
  0.687500000       2.50000004E-02  0.140219867      -1.12912105E-03  0.140224412    
  0.687500000       7.50000030E-02  0.396090508      -1.38596678E-03  0.396092951    
  0.687500000      0.125000000      0.623934984       1.83710176E-03  0.623937666    
  0.687500000      0.175000012      0.821023047       7.08001340E-03  0.821053565    
  0.687500000      0.224999994      0.985929787       1.24607412E-02  0.986008525    
  0.687500000      0.275000006       1.11872196       1.62845161E-02   1.11884058    
  0.687500000      0.324999988       1.22076321       1.73834004E-02   1.22088695    
  0.687500000      0.375000000       1.29423428       1.53024429E-02   1.29432476    
  0.687500000      0.425000012       1.34151506       1.03190728E-02   1.34155476    
  0.687500000      0.475000024       1.36458898       3.32617108E-03   1.36459303    
  0.687500000      0.524999976       1.36457181      -4.37857211E-03   1.36457884    
  0.687500000      0.575000048       1.34146023      -1.13568380E-02   1.34150827    
  0.687500000      0.625000000       1.29413795      -1.63117312E-02   1.29424071    
  0.687500000      0.675000012       1.22062433      -1.83522608E-02   1.22076225    
  0.687500000      0.725000024       1.11854053      -1.72041506E-02   1.11867285    
  0.687500000      0.774999976      0.985713661      -1.33269243E-02  0.985803723    
  0.687500000      0.825000048      0.820787430      -7.89253041E-03  0.820825338    
  0.687500000      0.875000000      0.623708844      -2.59890733E-03  0.623714268    
  0.687500000      0.925000012      0.395917416       6.76355907E-04  0.395918012    
  0.687500000      0.975000024      0.140155271       7.88316887E-04  0.140157491    
  0.687500000       1.00000000       0.00000000       0.00000000       0.00000000    
  0.812500000       0.00000000       0.00000000       0.00000000       0.00000000    
  0.812500000       2.50000004E-02  0.135234177      -1.64513418E-03  0.135244191    
  0.812500000       7.50000030E-02  0.382248342      -3.76094412E-03  0.382266849    
  0.812500000      0.125000000      0.603776753      -3.64789786E-03  0.603787780    
  0.812500000      0.175000012      0.797998190      -1.87200890E-03  0.798000395    
  0.812500000      0.224999994      0.963627458       6.28544483E-04  0.963627696    
  0.812500000      0.275000006       1.10010552       2.92463251E-03   1.10010946    
  0.812500000      0.324999988       1.20760953       4.28679027E-03   1.20761716    
  0.812500000      0.375000000       1.28688109       4.32421546E-03   1.28688836    
  0.812500000      0.425000012       1.33892345       3.04005970E-03   1.33892691    
  0.812500000      0.475000024       1.36465597       7.98026624E-04   1.36465621    
  0.812500000      0.524999976       1.36462045      -1.78887160E-03   1.36462164    
  0.812500000      0.575000048       1.33881593      -4.01847251E-03   1.33882201    
  0.812500000      0.625000000       1.28670311      -5.27819712E-03   1.28671396    
  0.812500000      0.675000012       1.20736599      -5.20645175E-03   1.20737720    
  0.812500000      0.725000024       1.09980595      -3.80315352E-03   1.09981251    
  0.812500000      0.774999976      0.963289022      -1.46277691E-03  0.963290155    
  0.812500000      0.825000048      0.797647953       1.08211895E-03  0.797648728    
  0.812500000      0.875000000      0.603455544       2.89943907E-03  0.603462517    
  0.812500000      0.925000012      0.382010579       3.05715343E-03  0.382022798    
  0.812500000      0.975000024      0.135144725       1.30575313E-03  0.135151029    
  0.812500000       1.00000000       0.00000000       0.00000000       0.00000000    
  0.937500000       0.00000000       0.00000000       0.00000000       0.00000000    
  0.937500000       2.50000004E-02  0.132107645      -1.87249831E-03  0.132120907    
  0.937500000       7.50000030E-02  0.373314917      -4.83625568E-03  0.373346269    
  0.937500000      0.125000000      0.590174198      -6.19898923E-03  0.590206742    
  0.937500000      0.175000012      0.781393409      -6.14675786E-03  0.781417608    
  0.937500000      0.224999994      0.945904434      -5.16640767E-03  0.945918560    
  0.937500000      0.275000006       1.08298349      -3.77224619E-03   1.08299005    
  0.937500000      0.324999988       1.19230461      -2.41022138E-03   1.19230711    
  0.937500000      0.375000000       1.27389479      -1.37700560E-03   1.27389550    
  0.937500000      0.425000012       1.32800436      -7.76172674E-04   1.32800460    
  0.937500000      0.475000024       1.35493493      -5.23197523E-04   1.35493505    
  0.937500000      0.524999976       1.35488391      -3.99064884E-04   1.35488391    
  0.937500000      0.575000048       1.32785368      -1.36112532E-04   1.32785368    
  0.937500000      0.625000000       1.27365017       4.83816926E-04   1.27365029    
  0.937500000      0.675000012       1.19197583       1.54350908E-03   1.19197679    
  0.937500000      0.725000024       1.08258832       2.93733645E-03   1.08259225    
  0.937500000      0.774999976      0.945469022       4.36563510E-03  0.945479095    
  0.937500000      0.825000048      0.780953825       5.37990360E-03  0.780972362    
  0.937500000      0.875000000      0.589779258       5.46408445E-03  0.589804590    
  0.937500000      0.925000012      0.373027325       4.13850788E-03  0.373050272    
  0.937500000      0.975000024      0.131999373       1.53455802E-03  0.132008284    
  0.937500000       1.00000000       0.00000000       0.00000000       0.00000000    
   1.06250000       0.00000000       0.00000000       0.00000000       0.00000000    
   1.06250000       2.50000004E-02  0.129788756      -1.96842756E-03  0.129803687    
   1.06250000       7.50000030E-02  0.366618574      -5.30253677E-03  0.366656899    
   1.06250000      0.125000000      0.579691947      -7.33314315E-03  0.579738319    
   1.06250000      0.175000012      0.768000603      -8.09052680E-03  0.768043220    
   1.06250000      0.224999994      0.930634260      -7.85554480E-03  0.930667400    
   1.06250000      0.275000006       1.06685138      -6.93590613E-03   1.06687403    
   1.06250000      0.324999988       1.17612982      -5.62117621E-03   1.17614329    
   1.06250000      0.375000000       1.25816965      -4.14029974E-03   1.25817645    
   1.06250000      0.425000012       1.31284940      -2.63529900E-03   1.31285203    
   1.06250000      0.475000024       1.34015119      -1.15922617E-03   1.34015167    
   1.06250000      0.524999976       1.34008908       3.01626598E-04   1.34008908    
   1.06250000      0.575000048       1.31266665       1.78529392E-03   1.31266785    
   1.06250000      0.625000000       1.25787449       3.30428081E-03   1.25787890    
   1.06250000      0.675000012       1.17573714       4.80428617E-03   1.17574704    
   1.06250000      0.725000024       1.06638467       6.14173943E-03   1.06640232    
   1.06250000      0.774999976      0.930126905       7.08543882E-03  0.930153906    
   1.06250000      0.825000048      0.767495751       7.34437490E-03  0.767530918    
   1.06250000      0.875000000      0.579244733       6.61032740E-03  0.579282463    
   1.06250000      0.925000012      0.366296560       4.60997503E-03  0.366325557    
   1.06250000      0.975000024      0.129668057       1.63155561E-03  0.129678324    
   1.06250000       1.00000000       0.00000000       0.00000000       0.00000000    
   1.18750000       0.00000000       0.00000000       0.00000000       0.00000000    
   1.18750000       2.50000004E-02  0.127803475      -2.00560177E-03  0.127819210    
   1.18750000       7.50000030E-02  0.360894322      -5.49060153E-03  0.360936105    
   1.18750000      0.125000000      0.570619583      -7.80483056E-03  0.570672929    
   1.18750000      0.175000012      0.756117344      -8.91937688E-03  0.756169975    
   1.18750000      0.224999994      0.916574955      -9.02662612E-03  0.916619420    
   1.18750000      0.275000006       1.05127215      -8.33788421E-03   1.05130517    
   1.18750000      0.324999988       1.15962076      -7.06379488E-03   1.15964234    
   1.18750000      0.375000000       1.24118471      -5.39355073E-03   1.24119639    
   1.18750000      0.425000012       1.29567432      -3.48082930E-03   1.29567897    
   1.18750000      0.475000024       1.32292140      -1.44111889E-03   1.32292211    
   1.18750000      0.524999976       1.32285213       6.38578262E-04   1.32285225    
   1.18750000      0.575000048       1.29546952       2.68287142E-03   1.29547226    
   1.18750000      0.625000000       1.24085402       4.60499991E-03   1.24086261    
   1.18750000      0.675000012       1.15918398       6.28836267E-03   1.15920103    
   1.18750000      0.725000024       1.05075705       7.57778808E-03   1.05078435    
   1.18750000      0.774999976      0.916019619       8.28230195E-03  0.916057050    
   1.18750000      0.825000048      0.755569816       8.19083303E-03  0.755614221    
   1.18750000      0.875000000      0.570138335       7.09199067E-03  0.570182443    
   1.18750000      0.925000012      0.360549748       4.80190525E-03  0.360581726    
   1.18750000      0.975000024      0.127673715       1.66942622E-03  0.127684623    
   1.18750000       1.00000000       0.00000000       0.00000000       0.00000000    
   1.31250000       0.00000000       0.00000000       0.00000000       0.00000000    
   1.31250000       2.50000004E-02  0.125940382      -2.01777974E-03  0.125956550    
   1.31250000       7.50000030E-02  0.355560184      -5.55760553E-03  0.355603635    
   1.31250000      0.125000000      0.562141061      -7.98227359E-03  0.562197745    
   1.31250000      0.175000012      0.744896233      -9.24268924E-03  0.744953573    
   1.31250000      0.224999994      0.903070807      -9.49558802E-03  0.903120697    
   1.31250000      0.275000006       1.03597021      -8.91021453E-03   1.03600860    
   1.31250000      0.324999988       1.14299273      -7.66046345E-03   1.14301836    
   1.31250000      0.375000000       1.22365379      -5.91500197E-03   1.22366810    
   1.31250000      0.425000012       1.27759552      -3.83105502E-03   1.27760124    
   1.31250000      0.475000024       1.30458498      -1.55148981E-03   1.30458593    
   1.31250000      0.524999976       1.30451131       7.92969833E-04   1.30451155    
   1.31250000      0.575000048       1.27737701       3.07556032E-03   1.27738070    
   1.31250000      0.625000000       1.22330213       5.16478904E-03   1.22331297    
   1.31250000      0.675000012       1.14252949       6.91763777E-03   1.14255047    
   1.31250000      0.725000024       1.03542650       8.17613024E-03   1.03545880    
   1.31250000      0.774999976      0.902487695       8.77032150E-03  0.902530313    
   1.31250000      0.825000048      0.744324684       8.52655713E-03  0.744373500    
   1.31250000      0.875000000      0.561641932       7.27634225E-03  0.561689079    
   1.31250000      0.925000012      0.355204523       4.87194723E-03  0.355237931    
   1.31250000      0.975000024      0.125806943       1.68237311E-03  0.125818193    
   1.31250000       1.00000000       0.00000000       0.00000000       0.00000000    
   1.43750000       0.00000000       0.00000000       0.00000000       0.00000000    
   1.43750000       2.50000004E-02  0.124114528      -2.02009222E-03  0.124130972    
   1.43750000       7.50000030E-02  0.350364834      -5.57522755E-03  0.350409210    
   1.43750000      0.125000000      0.553890109      -8.03636108E-03  0.553948402    
   1.43750000      0.175000012      0.733942747      -9.34947282E-03  0.734002352    
   1.43750000      0.224999994      0.889802754      -9.65859927E-03  0.889855146    
   1.43750000      0.275000006       1.02079749      -9.11614858E-03   1.02083814    
   1.43750000      0.324999988       1.12633073      -7.87997805E-03   1.12635827    
   1.43750000      0.375000000       1.20590627      -6.10897364E-03   1.20592177    
   1.43750000      0.425000012       1.25914383      -3.96022573E-03   1.25915003    
   1.43750000      0.475000024       1.28578711      -1.58710254E-03   1.28578806    
   1.43750000      0.524999976       1.28571105       8.60971166E-04   1.28571129    
   1.43750000      0.575000048       1.25891829       3.23556527E-03   1.25892246    
   1.43750000      0.625000000       1.20554376       5.38661610E-03   1.20555580    
   1.43750000      0.675000012       1.12585413       7.16104452E-03   1.12587690    
   1.43750000      0.725000024       1.02023959       8.40137526E-03   1.02027416    
   1.43750000      0.774999976      0.889206290       8.94804113E-03  0.889251292    
   1.43750000      0.825000048      0.733360648       8.64362158E-03  0.733411551    
   1.43750000      0.875000000      0.553384125       7.33649498E-03  0.553432763    
   1.43750000      0.925000012      0.350006014       4.89240978E-03  0.350040227    
   1.43750000      0.975000024      0.123981111       1.68551737E-03  0.123992570    
   1.43750000       1.00000000       0.00000000       0.00000000       0.00000000    
   1.56250000       0.00000000       0.00000000       0.00000000       0.00000000    
   1.56250000       2.50000004E-02  0.122295894      -2.01989897E-03  0.122312576    
   1.56250000       7.50000030E-02  0.345208108      -5.57708181E-03  0.345253170    
   1.56250000      0.125000000      0.545713305      -8.04604962E-03  0.545772612    
   1.56250000      0.175000012      0.723085642      -9.37321130E-03  0.723146379    
   1.56250000      0.224999994      0.876626670      -9.70009901E-03  0.876680374    
   1.56250000      0.275000006       1.00568211      -9.17303190E-03   1.00572395    
   1.56250000      0.324999988       1.10966611      -7.94297643E-03   1.10969448    
   1.56250000      0.375000000       1.18808532      -6.16501505E-03   1.18810129    
   1.56250000      0.425000012       1.24055636      -3.99597781E-03   1.24056280    
   1.56250000      0.475000024       1.26681781      -1.59248011E-03   1.26681876    
   1.56250000      0.524999976       1.26674080       8.89429823E-04   1.26674116    
   1.56250000      0.575000048       1.24032807       3.29333823E-03   1.24033248    
   1.56250000      0.625000000       1.18771815       5.46251703E-03   1.18773067    
   1.56250000      0.675000012       1.10918427       7.24037271E-03   1.10920787    
   1.56250000      0.725000024       1.00511932       8.47077928E-03   1.00515509    
   1.56250000      0.774999976      0.876026630       8.99903663E-03  0.876072884    
   1.56250000      0.825000048      0.722501516       8.67356639E-03  0.722553551    
   1.56250000      0.875000000      0.545206904       7.34918844E-03  0.545256436    
   1.56250000      0.925000012      0.344849944       4.89529595E-03  0.344884694    
   1.56250000      0.975000024      0.122162789       1.68547023E-03  0.122174412    
   1.56250000       1.00000000       0.00000000       0.00000000       0.00000000    
   1.68750000       0.00000000       0.00000000       0.00000000       0.00000000    
   1.68750000       2.50000004E-02  0.120472938      -2.01873994E-03  0.120489851    
   1.68750000       7.50000030E-02  0.340053082      -5.57358749E-03  0.340098739    
   1.68750000      0.125000000      0.537550688      -8.04111734E-03  0.537610829    
   1.68750000      0.175000012      0.712253690      -9.36951768E-03  0.712315321    
   1.68750000      0.224999994      0.863478839      -9.69997328E-03  0.863533318    
   1.68750000      0.275000006      0.990587234      -9.17713344E-03  0.990629733    
   1.68750000      0.324999988       1.09300458      -7.95050431E-03   1.09303343    
   1.68750000      0.375000000       1.17024422      -6.17290940E-03   1.17026055    
   1.68750000      0.425000012       1.22192764      -4.00002813E-03   1.22193420    
   1.68750000      0.475000024       1.24779510      -1.58965134E-03   1.24779618    
   1.68750000      0.524999976       1.24771833       8.99947481E-04   1.24771869    
   1.68750000      0.575000048       1.22169948       3.31001403E-03   1.22170401    
   1.68750000      0.625000000       1.16987753       5.48172370E-03   1.16989040    
   1.68750000      0.675000012       1.09252369       7.25778006E-03   1.09254777    
   1.68750000      0.725000024      0.990027130       8.48319195E-03  0.990063488    
   1.68750000      0.774999976      0.862882853       9.00522713E-03  0.862929821    
   1.68750000      0.825000048      0.711674154       8.67435336E-03  0.711727023    
   1.68750000      0.875000000      0.537049294       7.34703150E-03  0.537099540    
   1.68750000      0.925000012      0.339699388       4.89303935E-03  0.339734614    
   1.68750000      0.975000024      0.120341927       1.68464030E-03  0.120353721    
   1.68750000       1.00000000       0.00000000       0.00000000       0.00000000    
   1.81250000       0.00000000       0.00000000       0.00000000       0.00000000    
   1.81250000       2.50000004E-02  0.118645370      -2.01782444E-03  0.118662529    
   1.81250000       7.50000030E-02  0.334891140      -5.56995301E-03  0.334937453    
   1.81250000      0.125000000      0.529383361      -8.03445280E-03  0.529444337    
   1.81250000      0.175000012      0.701421380      -9.36071016E-03  0.701483846    
   1.81250000      0.224999994      0.850335062      -9.69008822E-03  0.850390255    
   1.81250000      0.275000006      0.975497305      -9.16764699E-03  0.975540400    
   1.81250000      0.324999988       1.07634568      -7.94224907E-03   1.07637501    
   1.81250000      0.375000000       1.15240192      -6.16600364E-03   1.15241849    
   1.81250000      0.425000012       1.20329320      -3.99441598E-03   1.20329976    
   1.81250000      0.475000024       1.22876430      -1.58512080E-03   1.22876537    
   1.81250000      0.524999976       1.22868824       9.03527427E-04   1.22868860    
   1.81250000      0.575000048       1.20306778       3.31220427E-03   1.20307231    
   1.81250000      0.625000000       1.15203989       5.48188435E-03   1.15205288    
   1.81250000      0.675000012       1.07587147       7.25561660E-03   1.07589591    
   1.81250000      0.725000024      0.974945366       8.47836398E-03  0.974982262    
   1.81250000      0.774999976      0.849748015       8.99796933E-03  0.849795640    