 TITLE= "TESTPLOT" 
 VARIABLES="x","y","fx","fy","magf" 
 ZONE T="1", I=          81 , J=          21
   0.00000000       0.00000000       1.00000000       0.00000000       1.00000000    
   0.00000000       2.50000004E-02   1.00000000       0.00000000       1.00000000    
   0.00000000       7.50000030E-02   1.00000000       0.00000000       1.00000000    
   0.00000000      0.125000000       1.00000000       0.00000000       1.00000000    
   0.00000000      0.175000012       1.00000000       0.00000000       1.00000000    
   0.00000000      0.224999994       1.00000000       0.00000000       1.00000000    
   0.00000000      0.275000006       1.00000000       0.00000000       1.00000000    
   0.00000000      0.324999988       1.00000000       0.00000000       1.00000000    
   0.00000000      0.375000000       1.00000000       0.00000000       1.00000000    
   0.00000000      0.425000012       1.00000000       0.00000000       1.00000000    
   0.00000000      0.475000024       1.00000000       0.00000000       1.00000000    
   0.00000000      0.524999976       1.00000000       0.00000000       1.00000000    
   0.00000000      0.575000048       1.00000000       0.00000000       1.00000000    
   0.00000000      0.625000000       1.00000000       0.00000000       1.00000000    
   0.00000000      0.675000012       1.00000000       0.00000000       1.00000000    
   0.00000000      0.725000024       1.00000000       0.00000000       1.00000000    
   0.00000000      0.774999976       1.00000000       0.00000000       1.00000000    
   0.00000000      0.825000048       1.00000000       0.00000000       1.00000000    
   0.00000000      0.875000000       1.00000000       0.00000000       1.00000000    
   0.00000000      0.925000012       1.00000000       0.00000000       1.00000000    
   0.00000000      0.975000024       1.00000000       0.00000000       1.00000000    
   0.00000000       1.00000000       1.00000000       0.00000000       1.00000000    
   6.25000000E-02   0.00000000      0.500000000       0.00000000      0.500000000    
   6.25000000E-02   2.50000004E-02  0.716381550      0.111084029      0.724942923    
   6.25000000E-02   7.50000030E-02  0.919972301      0.251637638      0.953766525    
   6.25000000E-02  0.125000000       1.01073050      0.274277598       1.04728425    
   6.25000000E-02  0.175000012       1.04560184      0.246671274       1.07430434    
   6.25000000E-02  0.224999994       1.05378985      0.201843709       1.07294631    
   6.25000000E-02  0.275000006       1.05049419      0.155060053       1.06187642    
   6.25000000E-02  0.324999988       1.04348898      0.112397075       1.04952478    
   6.25000000E-02  0.375000000       1.03656054       7.53079057E-02   1.03929257    
   6.25000000E-02  0.425000012       1.03141391       4.30483222E-02   1.03231180    
   6.25000000E-02  0.475000024       1.02873242       1.39200240E-02   1.02882659    
   6.25000000E-02  0.524999976       1.02873850      -1.41379274E-02   1.02883565    
   6.25000000E-02  0.575000048       1.03143215      -4.32758555E-02   1.03233957    
   6.25000000E-02  0.625000000       1.03659153      -7.55548030E-02   1.03934145    
   6.25000000E-02  0.675000012       1.04353464     -0.112674892       1.04960001    
   6.25000000E-02  0.725000024       1.05055666     -0.155381143       1.06198525    
   6.25000000E-02  0.774999976       1.05386806     -0.202220485       1.07309413    
   6.25000000E-02  0.825000048       1.04569507     -0.247115105       1.07449710    
   6.25000000E-02  0.875000000       1.01083255     -0.274796247       1.04751873    
   6.25000000E-02  0.925000012      0.920070052     -0.252221197      0.954014897    
   6.25000000E-02  0.975000024      0.716450334     -0.111388892      0.725057602    
   6.25000000E-02   1.00000000      0.500000000       0.00000000      0.500000000    
  0.187500000       0.00000000       0.00000000       0.00000000       0.00000000    
  0.187500000       2.50000004E-02  0.338619232       3.52736115E-02  0.340451479    
  0.187500000       7.50000030E-02  0.729766071      0.112051159      0.738318324    
  0.187500000      0.125000000      0.947877765      0.180424064      0.964896441    
  0.187500000      0.175000012       1.06122220      0.216722906       1.08312571    
  0.187500000      0.224999994       1.11299753      0.221423477       1.13480914    
  0.187500000      0.275000006       1.13064194      0.202270538       1.14859247    
  0.187500000      0.324999988       1.13128424      0.167562559       1.14362633    
  0.187500000      0.375000000       1.12529588      0.123846397       1.13209045    
  0.187500000      0.425000012       1.11869264       7.55065903E-02   1.12123787    
  0.187500000      0.475000024       1.11470294       2.51412224E-02   1.11498642    
  0.187500000      0.524999976       1.11472154      -2.57761367E-02   1.11501956    
  0.187500000      0.575000048       1.11874676      -7.61510581E-02   1.12133551    
  0.187500000      0.625000000       1.12538576     -0.124508798       1.13225245    
  0.187500000      0.675000012       1.13140845     -0.168249190       1.14384997    
  0.187500000      0.725000024       1.13079834     -0.202982843       1.14887202    
  0.187500000      0.774999976       1.11317873     -0.222158089       1.13513041    
  0.187500000      0.825000048       1.06141925     -0.217470676       1.08346868    
  0.187500000      0.875000000      0.948074102     -0.181169182      0.965228856    
  0.187500000      0.925000012      0.729936063     -0.112767220      0.738595366    
  0.187500000      0.975000024      0.338727176      -3.56200524E-02  0.340594918    
  0.187500000       1.00000000       0.00000000       0.00000000       0.00000000    
  0.312500000       0.00000000       0.00000000       0.00000000       0.00000000    
  0.312500000       2.50000004E-02  0.212850988       1.02656800E-02  0.213098392    
  0.312500000       7.50000030E-02  0.558438897       4.24231812E-02  0.560047984    
  0.312500000      0.125000000      0.813189030       8.61929208E-02  0.817744255    
  0.312500000      0.175000012      0.987256050      0.123101912      0.994901299    
  0.312500000      0.224999994       1.09791696      0.143770352       1.10729027    
  0.312500000      0.275000006       1.16287470      0.145814002       1.17198086    
  0.312500000      0.324999988       1.19742501      0.130924419       1.20456123    
  0.312500000      0.375000000       1.21352923      0.102642849       1.21786237    
  0.312500000      0.425000012       1.21976113       6.50134161E-02   1.22149253    
  0.312500000      0.475000024       1.22157156       2.19553765E-02   1.22176886    
  0.312500000      0.524999976       1.22159576      -2.28726044E-02   1.22180986    
  0.312500000      0.575000048       1.21983063      -6.59288913E-02   1.22161102    
  0.312500000      0.625000000       1.21363950     -0.103554204       1.21804941    
  0.312500000      0.675000012       1.19756722     -0.131826714       1.20480108    
  0.312500000      0.725000024       1.16303706     -0.146700010       1.17225254    
  0.312500000      0.774999976       1.09808540     -0.144631177       1.10756934    
  0.312500000      0.825000048      0.987414360     -0.123927370      0.995160818    
  0.312500000      0.875000000      0.813321352      -8.69732723E-02  0.817958415    
  0.312500000      0.925000012      0.558533669      -4.31458354E-02  0.560197651    
  0.312500000      0.975000024      0.212903678      -1.06105041E-02  0.213167906    
  0.312500000       1.00000000       0.00000000       0.00000000       0.00000000    
  0.437500000       0.00000000       0.00000000       0.00000000       0.00000000    
  0.437500000       2.50000004E-02  0.168336064       2.77159410E-03  0.168358877    
  0.437500000       7.50000030E-02  0.466689646       1.52155459E-02  0.466937631    
  0.437500000      0.125000000      0.715142131       3.70996632E-02  0.716103852    
  0.437500000      0.175000012      0.910248339       5.99575080E-02  0.912220895    
  0.437500000      0.224999994       1.05521429       7.69230649E-02   1.05801439    
  0.437500000      0.275000006       1.15724444       8.39641839E-02   1.16028643    
  0.437500000      0.324999988       1.22512221       7.97786489E-02   1.22771704    
  0.437500000      0.375000000       1.26742697       6.51736856E-02   1.26910162    
  0.437500000      0.425000012       1.29135394       4.23584804E-02   1.29204845    
  0.437500000      0.475000024       1.30200922       1.43563896E-02   1.30208838    
  0.437500000      0.524999976       1.30202579      -1.54103013E-02   1.30211699    
  0.437500000      0.575000048       1.29140019      -4.34016697E-02   1.29212928    
  0.437500000      0.625000000       1.26749563      -6.61951378E-02   1.26922297    
  0.437500000      0.675000012       1.22520220      -8.07673186E-02   1.22786152    
  0.437500000      0.725000024       1.15732241      -8.49099308E-02   1.16043305    
  0.437500000      0.774999976       1.05527806      -7.78179616E-02   1.05814338    
  0.437500000      0.825000048      0.910286665      -6.07959703E-02  0.912314594    
  0.437500000      0.875000000      0.715153933      -3.78805622E-02  0.716156483    
  0.437500000      0.925000012      0.466686130      -1.59357768E-02  0.466958106    
  0.437500000      0.975000024      0.168340743      -3.11546214E-03  0.168369576    
  0.437500000       1.00000000       0.00000000       0.00000000       0.00000000    
  0.562500000       0.00000000       0.00000000       0.00000000       0.00000000    
  0.562500000       2.50000004E-02  0.149406731       3.12326920E-05  0.149406731    
  0.562500000       7.50000030E-02  0.420391619       3.77378659E-03  0.420408547    
  0.562500000      0.125000000      0.657210171       1.33170299E-02  0.657345057    
  0.562500000      0.175000012      0.855938852       2.51003187E-02  0.856306791    
  0.562500000      0.224999994       1.01577818       3.53822522E-02   1.01639426    
  0.562500000      0.275000006       1.13874435       4.12669033E-02   1.13949180    
  0.562500000      0.324999988       1.22877538       4.11429107E-02   1.22946393    
  0.562500000      0.375000000       1.29064071       3.47531736E-02   1.29110861    
  0.562500000      0.425000012       1.32890105       2.30163001E-02   1.32910037    
  0.562500000      0.475000024       1.34707975       7.72378128E-03   1.34710181    
  0.562500000      0.524999976       1.34708071      -8.80732387E-03   1.34710956    
  0.562500000      0.575000048       1.32889962      -2.40853988E-02   1.32911789    
  0.562500000      0.625000000       1.29063046      -3.57936174E-02   1.29112673    
  0.562500000      0.675000012       1.22874904      -4.21417281E-02   1.22947145    
  0.562500000      0.725000024       1.13869405      -4.22138870E-02   1.13947630    
  0.562500000      0.774999976       1.01570034      -3.62711996E-02   1.01634777    
  0.562500000      0.825000048      0.855834424      -2.59287693E-02  0.856227100    
  0.562500000      0.875000000      0.657095313      -1.40876109E-02  0.657246292    
  0.562500000      0.925000012      0.420295984      -4.48656175E-03  0.420319945    
  0.562500000      0.975000024      0.149372399      -3.72459064E-04  0.149372861    
  0.562500000       1.00000000       0.00000000       0.00000000       0.00000000    
  0.687500000       0.00000000       0.00000000       0.00000000       0.00000000    
  0.687500000       2.50000004E-02  0.140231431      -1.12987903E-03  0.140235975    
  0.687500000       7.50000030E-02  0.396094769      -1.38768507E-03  0.396097183    
  0.687500000      0.125000000      0.623930335       1.83545181E-03  0.623933017    
  0.687500000      0.175000012      0.821013987       7.07867602E-03  0.821044505    
  0.687500000      0.224999994      0.985918999       1.24592036E-02  0.985997677    
  0.687500000      0.275000006       1.11871016       1.62830688E-02   1.11882865    
  0.687500000      0.324999988       1.22075081       1.73829123E-02   1.22087455    
  0.687500000      0.375000000       1.29422164       1.53026022E-02   1.29431212    
  0.687500000      0.425000012       1.34150147       1.03190616E-02   1.34154117    
  0.687500000      0.475000024       1.36457407       3.32584372E-03   1.36457813    
  0.687500000      0.524999976       1.36455667      -4.37917141E-03   1.36456370    
  0.687500000      0.575000048       1.34144437      -1.13569964E-02   1.34149241    
  0.687500000      0.625000000       1.29412270      -1.63107105E-02   1.29422545    
  0.687500000      0.675000012       1.22060907      -1.83505602E-02   1.22074699    
  0.687500000      0.725000024       1.11852562      -1.72023643E-02   1.11865783    
  0.687500000      0.774999976      0.985699415      -1.33248121E-02  0.985789478    
  0.687500000      0.825000048      0.820774198      -7.88964238E-03  0.820812106    
  0.687500000      0.875000000      0.623700619      -2.59569683E-03  0.623706043    
  0.687500000      0.925000012      0.395919263       6.78784505E-04  0.395919859    
  0.687500000      0.975000024      0.140165895       7.89207290E-04  0.140168115    
  0.687500000       1.00000000       0.00000000       0.00000000       0.00000000    
  0.812500000       0.00000000       0.00000000       0.00000000       0.00000000    
  0.812500000       2.50000004E-02  0.135248125      -1.64568995E-03  0.135258138    
  0.812500000       7.50000030E-02  0.382253051      -3.76239512E-03  0.382271558    
  0.812500000      0.125000000      0.603770614      -3.64966271E-03  0.603781641    
  0.812500000      0.175000012      0.797986388      -1.87359157E-03  0.797988594    
  0.812500000      0.224999994      0.963613987       6.27395348E-04  0.963614225    
  0.812500000      0.275000006       1.10009158       2.92391516E-03   1.10009551    
  0.812500000      0.324999988       1.20759463       4.28649224E-03   1.20760226    
  0.812500000      0.375000000       1.28686500       4.32435144E-03   1.28687227    
  0.812500000      0.425000012       1.33890676       3.03996122E-03   1.33891022    
  0.812500000      0.475000024       1.36463737       7.97166314E-04   1.36463761    
  0.812500000      0.524999976       1.36460102      -1.78974075E-03   1.36460221    
  0.812500000      0.575000048       1.33879685      -4.01873980E-03   1.33880281    
  0.812500000      0.625000000       1.28668523      -5.27791400E-03   1.28669608    
  0.812500000      0.675000012       1.20734882      -5.20576816E-03   1.20736003    
  0.812500000      0.725000024       1.09978843      -3.80227994E-03   1.09979498    
  0.812500000      0.774999976      0.963272095      -1.46143220E-03  0.963273168    
  0.812500000      0.825000048      0.797632635       1.08409766E-03  0.797633410    
  0.812500000      0.875000000      0.603446007       2.90165213E-03  0.603452981    
  0.812500000      0.925000012      0.382012427       3.05898441E-03  0.382024676    
  0.812500000      0.975000024      0.135157287       1.30648399E-03  0.135163590    
  0.812500000       1.00000000       0.00000000       0.00000000       0.00000000    
  0.937500000       0.00000000       0.00000000       0.00000000       0.00000000    
  0.937500000       2.50000004E-02  0.132122815      -1.87285291E-03  0.132136092    
  0.937500000       7.50000030E-02  0.373320043      -4.83721960E-03  0.373351365    
  0.937500000      0.125000000      0.590166926      -6.20012544E-03  0.590199471    
  0.937500000      0.175000012      0.781379223      -6.14730828E-03  0.781403422    
  0.937500000      0.224999994      0.945887923      -5.16633131E-03  0.945902050    
  0.937500000      0.275000006       1.08296669      -3.77203524E-03   1.08297324    
  0.937500000      0.324999988       1.19228673      -2.41008261E-03   1.19228923    
  0.937500000      0.375000000       1.27387512      -1.37685786E-03   1.27387583    
  0.937500000      0.425000012       1.32798409      -7.75918365E-04   1.32798433    
  0.937500000      0.475000024       1.35491204      -5.23016090E-04   1.35491216    
  0.937500000      0.524999976       1.35486138      -3.98987206E-04   1.35486138    
  0.937500000      0.575000048       1.32783246      -1.36452742E-04   1.32783246    
  0.937500000      0.625000000       1.27362955       4.83016716E-04   1.27362967    
  0.937500000      0.675000012       1.19195628       1.54252234E-03   1.19195724    
  0.937500000      0.725000024       1.08256865       2.93656951E-03   1.08257258    
  0.937500000      0.774999976      0.945449412       4.36565839E-03  0.945459485    
  0.937500000      0.825000048      0.780936778       5.38070872E-03  0.780955315    
  0.937500000      0.875000000      0.589769006       5.46535663E-03  0.589794338    
  0.937500000      0.925000012      0.373030126       4.13967203E-03  0.373053074    
  0.937500000      0.975000024      0.132014275       1.53502240E-03  0.132023200    
  0.937500000       1.00000000       0.00000000       0.00000000       0.00000000    
   1.06250000       0.00000000       0.00000000       0.00000000       0.00000000    
   1.06250000       2.50000004E-02  0.129806861      -1.96930300E-03  0.129821792    
   1.06250000       7.50000030E-02  0.366624832      -5.30452561E-03  0.366663188    
   1.06250000      0.125000000      0.579684019      -7.33519904E-03  0.579730392    
   1.06250000      0.175000012      0.767984629      -8.09218269E-03  0.768027306    
   1.06250000      0.224999994      0.930615067      -7.85669684E-03  0.930648267    
   1.06250000      0.275000006       1.06683135      -6.93707354E-03   1.06685388    
   1.06250000      0.324999988       1.17610860      -5.62263280E-03   1.17612207    
   1.06250000      0.375000000       1.25814748      -4.14144807E-03   1.25815427    
   1.06250000      0.425000012       1.31282628      -2.63591530E-03   1.31282890    
   1.06250000      0.475000024       1.34012604      -1.15966343E-03   1.34012651    
   1.06250000      0.524999976       1.34006548       3.01204505E-04   1.34006560    
   1.06250000      0.575000048       1.31264424       1.78502826E-03   1.31264544    
   1.06250000      0.625000000       1.25785136       3.30426637E-03   1.25785577    
   1.06250000      0.675000012       1.17571461       4.80477978E-03   1.17572451    
   1.06250000      0.725000024       1.06636250       6.14230148E-03   1.06638014    
   1.06250000      0.774999976      0.930105329       7.08577922E-03  0.930132329    
   1.06250000      0.825000048      0.767477155       7.34504499E-03  0.767512321    
   1.06250000      0.875000000      0.579234064       6.61134021E-03  0.579271793    
   1.06250000      0.925000012      0.366300583       4.61082626E-03  0.366329610    
   1.06250000      0.975000024      0.129684836       1.63186179E-03  0.129695103    
   1.06250000       1.00000000       0.00000000       0.00000000       0.00000000    
   1.18750000       0.00000000       0.00000000       0.00000000       0.00000000    
   1.18750000       2.50000004E-02  0.127822533      -2.00602016E-03  0.127838269    
   1.18750000       7.50000030E-02  0.360899806      -5.49186859E-03  0.360941589    
   1.18750000      0.125000000      0.570609212      -7.80668855E-03  0.570662618    
   1.18750000      0.175000012      0.756098628      -8.92146491E-03  0.756151259    
   1.18750000      0.224999994      0.916553020      -9.02898796E-03  0.916597486    
   1.18750000      0.275000006       1.05124950      -8.34022090E-03   1.05128264    
   1.18750000      0.324999988       1.15959740      -7.06553832E-03   1.15961897    
   1.18750000      0.375000000       1.24116015      -5.39450161E-03   1.24117184    
   1.18750000      0.425000012       1.29564857      -3.48131149E-03   1.29565322    
   1.18750000      0.475000024       1.32289422      -1.44169014E-03   1.32289493    
   1.18750000      0.524999976       1.32282639       6.38239901E-04   1.32282650    
   1.18750000      0.575000048       1.29544437       2.68311426E-03   1.29544711    
   1.18750000      0.625000000       1.24082851       4.60597733E-03   1.24083710    
   1.18750000      0.675000012       1.15915847       6.29000645E-03   1.15917552    
   1.18750000      0.725000024       1.05073190       7.57960789E-03   1.05075920    
   1.18750000      0.774999976      0.915995419       8.28405097E-03  0.916032851    
   1.18750000      0.825000048      0.755548060       8.19255412E-03  0.755592465    
   1.18750000      0.875000000      0.570125759       7.09366798E-03  0.570169866    
   1.18750000      0.925000012      0.360554159       4.80342563E-03  0.360586137    
   1.18750000      0.975000024      0.127692878       1.67016475E-03  0.127703801    
   1.18750000       1.00000000       0.00000000       0.00000000       0.00000000    
   1.31250000       0.00000000       0.00000000       0.00000000       0.00000000    
   1.31250000       2.50000004E-02  0.125960559      -2.01852457E-03  0.125976726    
   1.31250000       7.50000030E-02  0.355565935      -5.55954175E-03  0.355609387    
   1.31250000      0.125000000      0.562129855      -7.98482914E-03  0.562186539    
   1.31250000      0.175000012      0.744875789      -9.24532488E-03  0.744933188    
   1.31250000      0.224999994      0.903047204      -9.49788280E-03  0.903097153    
   1.31250000      0.275000006       1.03594613      -8.91200453E-03   1.03598440    
   1.31250000      0.324999988       1.14296818      -7.66158290E-03   1.14299381    
   1.31250000      0.375000000       1.22362828      -5.91544248E-03   1.22364259    
   1.31250000      0.425000012       1.27756846      -3.83098563E-03   1.27757418    
   1.31250000      0.475000024       1.30455768      -1.55154010E-03   1.30455863    
   1.31250000      0.524999976       1.30448437       7.92630424E-04   1.30448461    
   1.31250000      0.575000048       1.27734971       3.07550235E-03   1.27735341    
   1.31250000      0.625000000       1.22327495       5.16513269E-03   1.22328579    
   1.31250000      0.675000012       1.14250195       6.91845920E-03   1.14252293    
   1.31250000      0.725000024       1.03539920       8.17747973E-03   1.03543150    
   1.31250000      0.774999976      0.902461052       8.77232663E-03  0.902503669    
   1.31250000      0.825000048      0.744300842       8.52911733E-03  0.744349718    
   1.31250000      0.875000000      0.561627626       7.27861328E-03  0.561674833    
   1.31250000      0.925000012      0.355208814       4.87307459E-03  0.355242252    
   1.31250000      0.975000024      0.125827000       1.68258208E-03  0.125838250    
   1.31250000       1.00000000       0.00000000       0.00000000       0.00000000    
   1.43750000       0.00000000       0.00000000       0.00000000       0.00000000    
   1.43750000       2.50000004E-02  0.124136746      -2.02139281E-03  0.124153204    
   1.43750000       7.50000030E-02  0.350371182      -5.57829998E-03  0.350415587    
   1.43750000      0.125000000      0.553878069      -8.03976506E-03  0.553936422    
   1.43750000      0.175000012      0.733920813      -9.35241114E-03  0.733980417    
   1.43750000      0.224999994      0.889777303      -9.66084749E-03  0.889829755    
   1.43750000      0.275000006       1.02077174      -9.11766849E-03   1.02081239    
   1.43750000      0.324999988       1.12630486      -7.88103975E-03   1.12633240    
   1.43750000      0.375000000       1.20587969      -6.10984489E-03   1.20589519    
   1.43750000      0.425000012       1.25911570      -3.96098802E-03   1.25912189    
   1.43750000      0.475000024       1.28575921      -1.58752035E-03   1.28576016    
   1.43750000      0.524999976       1.28568256       8.61144450E-04   1.28568280    
   1.43750000      0.575000048       1.25888944       3.23610846E-03   1.25889361    
   1.43750000      0.625000000       1.20551467       5.38755767E-03   1.20552671    
   1.43750000      0.675000012       1.12582505       7.16237072E-03   1.12584782    
   1.43750000      0.725000024       1.02021062       8.40295199E-03   1.02024519    
   1.43750000      0.774999976      0.889177382       8.94995127E-03  0.889222443    
   1.43750000      0.825000048      0.733334780       8.64598528E-03  0.733385742    
   1.43750000      0.875000000      0.553368211       7.33915158E-03  0.553416908    
   1.43750000      0.925000012      0.350009561       4.89475625E-03  0.350043803    
   1.43750000      0.975000024      0.124001652       1.68652635E-03  0.124013118    
   1.43750000       1.00000000       0.00000000       0.00000000       0.00000000    
   1.56250000       0.00000000       0.00000000       0.00000000       0.00000000    
   1.56250000       2.50000004E-02  0.122318074      -2.02071294E-03  0.122334763    
   1.56250000       7.50000030E-02  0.345213234      -5.57875913E-03  0.345258296    
   1.56250000      0.125000000      0.545698345      -8.04776698E-03  0.545757651    
   1.56250000      0.175000012      0.723060250      -9.37490631E-03  0.723121047    
   1.56250000      0.224999994      0.876597643      -9.70180146E-03  0.876651347    
   1.56250000      0.275000006       1.00565243      -9.17465892E-03   1.00569427    
   1.56250000      0.324999988       1.10963678      -7.94445910E-03   1.10966516    
   1.56250000      0.375000000       1.18805587      -6.16661273E-03   1.18807185    
   1.56250000      0.425000012       1.24052525      -3.99727467E-03   1.24053168    
   1.56250000      0.475000024       1.26678658      -1.59281935E-03   1.26678753    
   1.56250000      0.524999976       1.26670933       8.89500894E-04   1.26670969    
   1.56250000      0.575000048       1.24029613       3.29380063E-03   1.24030054    
   1.56250000      0.625000000       1.18768644       5.46382926E-03   1.18769896    
   1.56250000      0.675000012       1.10915279       7.24199694E-03   1.10917640    
   1.56250000      0.725000024       1.00508761       8.47216882E-03   1.00512326    
   1.56250000      0.774999976      0.875994921       8.99995305E-03  0.876041174    
   1.56250000      0.825000048      0.722472787       8.67442228E-03  0.722524822    
   1.56250000      0.875000000      0.545188904       7.35003548E-03  0.545238435    
   1.56250000      0.925000012      0.344852954       4.89575043E-03  0.344887704    
   1.56250000      0.975000024      0.122184694       1.68562669E-03  0.122196317    
   1.56250000       1.00000000       0.00000000       0.00000000       0.00000000    
   1.68750000       0.00000000       0.00000000       0.00000000       0.00000000    
   1.68750000       2.50000004E-02  0.120495841      -2.01921957E-03  0.120512754    
   1.68750000       7.50000030E-02  0.340057701      -5.57473861E-03  0.340103388    
   1.68750000      0.125000000      0.537533164      -8.04288033E-03  0.537593305    
   1.68750000      0.175000012      0.712224305      -9.37146321E-03  0.712285936    
   1.68750000      0.224999994      0.863446295      -9.70150437E-03  0.863500774    
   1.68750000      0.275000006      0.990554094      -9.17847175E-03  0.990596592    
   1.68750000      0.324999988       1.09297156      -7.95168057E-03   1.09300053    
   1.68750000      0.375000000       1.17021155      -6.17372664E-03   1.17022789    
   1.68750000      0.425000012       1.22189391      -4.00061486E-03   1.22190046    
   1.68750000      0.475000024       1.24776125      -1.58991991E-03   1.24776220    
   1.68750000      0.524999976       1.24768448       9.00261919E-04   1.24768484    
   1.68750000      0.575000048       1.22166514       3.31074186E-03   1.22166967    
   1.68750000      0.625000000       1.16984367       5.48285246E-03   1.16985655    
   1.68750000      0.675000012       1.09248972       7.25944154E-03   1.09251380    
   1.68750000      0.725000024      0.989992023       8.48491024E-03  0.990028381    
   1.68750000      0.774999976      0.862848163       9.00616124E-03  0.862895191    
   1.68750000      0.825000048      0.711642146       8.67477059E-03  0.711695075    
   1.68750000      0.875000000      0.537029088       7.34750647E-03  0.537079334    
   1.68750000      0.925000012      0.339701831       4.89332527E-03  0.339737087    
   1.68750000      0.975000024      0.120363191       1.68468885E-03  0.120374978    
   1.68750000       1.00000000       0.00000000       0.00000000       0.00000000    
   1.81250000       0.00000000       0.00000000       0.00000000       0.00000000    
   1.81250000       2.50000004E-02  0.118668944      -2.01823958E-03  0.118686110    
   1.81250000       7.50000030E-02  0.334895045      -5.57097420E-03  0.334941387    
   1.81250000      0.125000000      0.529363632      -8.03576317E-03  0.529424608    
   1.81250000      0.175000012      0.701388955      -9.36221704E-03  0.701451421    
   1.81250000      0.224999994      0.850299478      -9.69153363E-03  0.850354731    
   1.81250000      0.275000006      0.975461721      -9.16873664E-03  0.975504816    
   1.81250000      0.324999988       1.07631016      -7.94307236E-03   1.07633948    
   1.81250000      0.375000000       1.15236664      -6.16675615E-03   1.15238321    
   1.81250000      0.425000012       1.20325708      -3.99507955E-03   1.20326376    
   1.81250000      0.475000024       1.22872686      -1.58538693E-03   1.22872782    
   1.81250000      0.524999976       1.22865129       9.03700537E-04   1.22865164    
   1.81250000      0.575000048       1.20303059       3.31260823E-03   1.20303512    
   1.81250000      0.625000000       1.15200281       5.48257492E-03   1.15201592    
   1.81250000      0.675000012       1.07583380       7.25678541E-03   1.07585824    
   1.81250000      0.725000024      0.974906445       8.47990997E-03  0.974943280    
   1.81250000      0.774999976      0.849709332       8.99971556E-03  0.849757016    