 TITLE= "TESTPLOT" 
 VARIABLES="x","y","fx","fy","magf" 
 ZONE T="1", I=          81 , J=          21
   0.00000000       0.00000000       1.00000000       0.00000000       1.00000000    
   0.00000000       2.50000004E-02   1.00000000       0.00000000       1.00000000    
   0.00000000       7.50000030E-02   1.00000000       0.00000000       1.00000000    
   0.00000000      0.125000000       1.00000000       0.00000000       1.00000000    
   0.00000000      0.175000012       1.00000000       0.00000000       1.00000000    
   0.00000000      0.224999994       1.00000000       0.00000000       1.00000000    
   0.00000000      0.275000006       1.00000000       0.00000000       1.00000000    
   0.00000000      0.324999988       1.00000000       0.00000000       1.00000000    
   0.00000000      0.375000000       1.00000000       0.00000000       1.00000000    
   0.00000000      0.425000012       1.00000000       0.00000000       1.00000000    
   0.00000000      0.475000024       1.00000000       0.00000000       1.00000000    
   0.00000000      0.524999976       1.00000000       0.00000000       1.00000000    
   0.00000000      0.575000048       1.00000000       0.00000000       1.00000000    
   0.00000000      0.625000000       1.00000000       0.00000000       1.00000000    
   0.00000000      0.675000012       1.00000000       0.00000000       1.00000000    
   0.00000000      0.725000024       1.00000000       0.00000000       1.00000000    
   0.00000000      0.774999976       1.00000000       0.00000000       1.00000000    
   0.00000000      0.825000048       1.00000000       0.00000000       1.00000000    
   0.00000000      0.875000000       1.00000000       0.00000000       1.00000000    
   0.00000000      0.925000012       1.00000000       0.00000000       1.00000000    
   0.00000000      0.975000024       1.00000000       0.00000000       1.00000000    
   0.00000000       1.00000000       1.00000000       0.00000000       1.00000000    
   6.25000000E-02   0.00000000      0.500000000       0.00000000      0.500000000    
   6.25000000E-02   2.50000004E-02  0.716362715      0.111081123      0.724923790    
   6.25000000E-02   7.50000030E-02  0.919942379      0.251632571      0.953736305    
   6.25000000E-02  0.125000000       1.01070058      0.274273932       1.04725444    
   6.25000000E-02  0.175000012       1.04557288      0.246668994       1.07427573    
   6.25000000E-02  0.224999994       1.05376196      0.201842174       1.07291865    
   6.25000000E-02  0.275000006       1.05046725      0.155058503       1.06184959    
   6.25000000E-02  0.324999988       1.04346204      0.112395182       1.04949784    
   6.25000000E-02  0.375000000       1.03653312       7.53056034E-02   1.03926504    
   6.25000000E-02  0.425000012       1.03138614       4.30461019E-02   1.03228402    
   6.25000000E-02  0.475000024       1.02870440       1.39179174E-02   1.02879858    
   6.25000000E-02  0.524999976       1.02871037      -1.41399419E-02   1.02880752    
   6.25000000E-02  0.575000048       1.03140426      -4.32776138E-02   1.03231180    
   6.25000000E-02  0.625000000       1.03656435      -7.55568445E-02   1.03931439    
   6.25000000E-02  0.675000012       1.04350746     -0.112677269       1.04957318    
   6.25000000E-02  0.725000024       1.05052912     -0.155383527       1.06195831    
   6.25000000E-02  0.774999976       1.05384028     -0.202222854       1.07306731    
   6.25000000E-02  0.825000048       1.04566622     -0.247116998       1.07446957    
   6.25000000E-02  0.875000000       1.01080263     -0.274796426       1.04748988    
   6.25000000E-02  0.925000012      0.920040607     -0.252219230      0.953985989    
   6.25000000E-02  0.975000024      0.716432214     -0.111387439      0.725039542    
   6.25000000E-02   1.00000000      0.500000000       0.00000000      0.500000000    
  0.187500000       0.00000000       0.00000000       0.00000000       0.00000000    
  0.187500000       2.50000004E-02  0.338562250       3.52707729E-02  0.340394527    
  0.187500000       7.50000030E-02  0.729673326      0.112047195      0.738226056    
  0.187500000      0.125000000      0.947784543      0.180423751      0.964804769    
  0.187500000      0.175000012       1.06113410      0.216725111       1.08303988    
  0.187500000      0.224999994       1.11291385      0.221425980       1.13472760    
  0.187500000      0.275000006       1.13056087      0.202272475       1.14851296    
  0.187500000      0.324999988       1.13120341      0.167563647       1.14354658    
  0.187500000      0.375000000       1.12521458      0.123846218       1.13200963    
  0.187500000      0.425000012       1.11861014       7.55054504E-02   1.12115550    
  0.187500000      0.475000024       1.11462021       2.51394249E-02   1.11490369    
  0.187500000      0.524999976       1.11463857      -2.57785451E-02   1.11493659    
  0.187500000      0.575000048       1.11866450      -7.61541724E-02   1.12125361    
  0.187500000      0.625000000       1.12530446     -0.124512926       1.13217211    
  0.187500000      0.675000012       1.13132739     -0.168254346       1.14377058    
  0.187500000      0.725000024       1.13071680     -0.202988893       1.14879286    
  0.187500000      0.774999976       1.11309576     -0.222164646       1.13505042    
  0.187500000      0.825000048       1.06133187     -0.217476577       1.08338428    
  0.187500000      0.875000000      0.947981000     -0.181172654      0.965138078    
  0.187500000      0.925000012      0.729844630     -0.112766981      0.738504946    
  0.187500000      0.975000024      0.338671565      -3.56189497E-02  0.340539485    
  0.187500000       1.00000000       0.00000000       0.00000000       0.00000000    
  0.312500000       0.00000000       0.00000000       0.00000000       0.00000000    
  0.312500000       2.50000004E-02  0.212754726       1.02632064E-02  0.213002130    
  0.312500000       7.50000030E-02  0.558280885       4.24198955E-02  0.559890151    
  0.312500000      0.125000000      0.813029051       8.61932337E-02  0.817585170    
  0.312500000      0.175000012      0.987108231      0.123104572      0.994754910    
  0.312500000      0.224999994       1.09777796      0.143772960       1.10715270    
  0.312500000      0.275000006       1.16273928      0.145815790       1.17184687    
  0.312500000      0.324999988       1.19729042      0.130925566       1.20442760    
  0.312500000      0.375000000       1.21339488      0.102643616       1.21772850    
  0.312500000      0.425000012       1.21962607       6.50135502E-02   1.22135770    
  0.312500000      0.475000024       1.22143614       2.19545290E-02   1.22163343    
  0.312500000      0.524999976       1.22146022      -2.28747725E-02   1.22167432    
  0.312500000      0.575000048       1.21969593      -6.59323707E-02   1.22147667    
  0.312500000      0.625000000       1.21350539     -0.103558585       1.21791613    
  0.312500000      0.675000012       1.19743383     -0.131832346       1.20466912    
  0.312500000      0.725000024       1.16290343     -0.146706998       1.17212093    
  0.312500000      0.774999976       1.09794831     -0.144638717       1.10743439    
  0.312500000      0.825000048      0.987268507     -0.123934187      0.995016992    
  0.312500000      0.875000000      0.813163638      -8.69776309E-02  0.817802012    
  0.312500000      0.925000012      0.558377743      -4.31466959E-02  0.560042262    
  0.312500000      0.975000024      0.212807775      -1.06100515E-02  0.213072106    
  0.312500000       1.00000000       0.00000000       0.00000000       0.00000000    
  0.437500000       0.00000000       0.00000000       0.00000000       0.00000000    
  0.437500000       2.50000004E-02  0.168200418       2.76937848E-03  0.168223217    
  0.437500000       7.50000030E-02  0.466467738       1.52125899E-02  0.466715723    
  0.437500000      0.125000000      0.714917302       3.70998718E-02  0.715879261    
  0.437500000      0.175000012      0.910041451       5.99602573E-02  0.912014604    
  0.437500000      0.224999994       1.05502045       7.69264475E-02   1.05782127    
  0.437500000      0.275000006       1.15705538       8.39669704E-02   1.16009808    
  0.437500000      0.324999988       1.22493458       7.97806531E-02   1.22752988    
  0.437500000      0.375000000       1.26723933       6.51750043E-02   1.26891422    
  0.437500000      0.425000012       1.29116654       4.23589237E-02   1.29186118    
  0.437500000      0.475000024       1.30182147       1.43555142E-02   1.30190063    
  0.437500000      0.524999976       1.30183852      -1.54126482E-02   1.30192983    
  0.437500000      0.575000048       1.29121399      -4.34055924E-02   1.29194343    
  0.437500000      0.625000000       1.26730931      -6.62003905E-02   1.26903725    
  0.437500000      0.675000012       1.22501659      -8.07736218E-02   1.22767663    
  0.437500000      0.725000024       1.15713596      -8.49170387E-02   1.16024756    
  0.437500000      0.774999976       1.05508661      -7.78252631E-02   1.05795300    
  0.437500000      0.825000048      0.910082996      -6.08024299E-02  0.912111819    
  0.437500000      0.875000000      0.714932978      -3.78838815E-02  0.715935946    
  0.437500000      0.925000012      0.466467172      -1.59348492E-02  0.466739267    
  0.437500000      0.975000024      0.168206155      -3.11404886E-03  0.168234974    
  0.437500000       1.00000000       0.00000000       0.00000000       0.00000000    
  0.562500000       0.00000000       0.00000000       0.00000000       0.00000000    
  0.562500000       2.50000004E-02  0.149233609       2.81438679E-05  0.149233609    
  0.562500000       7.50000030E-02  0.420106471       3.76917748E-03  0.420123369    
  0.562500000      0.125000000      0.656921268       1.33157969E-02  0.657056212    
  0.562500000      0.175000012      0.855672717       2.51019206E-02  0.856040835    
  0.562500000      0.224999994       1.01552916       3.53848413E-02   1.01614547    
  0.562500000      0.275000006       1.13850236       4.12691459E-02   1.13925004    
  0.562500000      0.324999988       1.22853494       4.11442891E-02   1.22922373    
  0.562500000      0.375000000       1.29040051       3.47534977E-02   1.29086840    
  0.562500000      0.425000012       1.32866120       2.30155736E-02   1.32886052    
  0.562500000      0.475000024       1.34684014       7.72186834E-03   1.34686220    
  0.562500000      0.524999976       1.34684157      -8.81032273E-03   1.34687042    
  0.562500000      0.575000048       1.32866132      -2.40889341E-02   1.32887971    
  0.562500000      0.625000000       1.29039192      -3.57976295E-02   1.29088843    
  0.562500000      0.675000012       1.22851074      -4.21468504E-02   1.22923350    
  0.562500000      0.725000024       1.13845420      -4.22201343E-02   1.13923681    
  0.562500000      0.774999976       1.01545393      -3.62779312E-02   1.01610172    
  0.562500000      0.825000048      0.855572522      -2.59351023E-02  0.855965555    
  0.562500000      0.875000000      0.656810522      -1.40916072E-02  0.656961679    
  0.562500000      0.925000012      0.420014024      -4.48665069E-03  0.420037985    
  0.562500000      0.975000024      0.149201065      -3.71475675E-04  0.149201527    
  0.562500000       1.00000000       0.00000000       0.00000000       0.00000000    
  0.687500000       0.00000000       0.00000000       0.00000000       0.00000000    
  0.687500000       2.50000004E-02  0.140020669      -1.13202399E-03  0.140025243    
  0.687500000       7.50000030E-02  0.395746648      -1.39064179E-03  0.395749092    
  0.687500000      0.125000000      0.623577774       1.83536462E-03  0.623580456    
  0.687500000      0.175000012      0.820689201       7.08073378E-03  0.820719719    
  0.687500000      0.224999994      0.985615134       1.24617759E-02  0.985693932    
  0.687500000      0.275000006       1.11841559       1.62850060E-02   1.11853421    
  0.687500000      0.324999988       1.22045827       1.73832867E-02   1.22058213    
  0.687500000      0.375000000       1.29392886       1.53017659E-02   1.29401934    
  0.687500000      0.425000012       1.34120917       1.03178639E-02   1.34124887    
  0.687500000      0.475000024       1.36428189       3.32442997E-03   1.36428595    
  0.687500000      0.524999976       1.36426473      -4.38043242E-03   1.36427176    
  0.687500000      0.575000048       1.34115386      -1.13589950E-02   1.34120190    
  0.687500000      0.625000000       1.29383230      -1.63142793E-02   1.29393518    
  0.687500000      0.675000012       1.22031856      -1.83552466E-02   1.22045660    
  0.687500000      0.725000024       1.11823344      -1.72080956E-02   1.11836588    
  0.687500000      0.774999976      0.985398412      -1.33312317E-02  0.985488594    
  0.687500000      0.825000048      0.820453763      -7.89566897E-03  0.820491791    
  0.687500000      0.875000000      0.623352408      -2.59957090E-03  0.623357832    
  0.687500000      0.925000012      0.395574331       6.78484736E-04  0.395574898    
  0.687500000      0.975000024      0.139956534       7.90024525E-04  0.139958769    
  0.687500000       1.00000000       0.00000000       0.00000000       0.00000000    
  0.812500000       0.00000000       0.00000000       0.00000000       0.00000000    
  0.812500000       2.50000004E-02  0.134998918      -1.64824957E-03  0.135008976    
  0.812500000       7.50000030E-02  0.381842792      -3.76598909E-03  0.381861359    
  0.812500000      0.125000000      0.603355527      -3.65012605E-03  0.603366554    
  0.812500000      0.175000012      0.797604322      -1.87165476E-03  0.797606528    
  0.812500000      0.224999994      0.963256598       6.29942748E-04  0.963256836    
  0.812500000      0.275000006       1.09974492       2.92582996E-03   1.09974885    
  0.812500000      0.324999988       1.20725083       4.28729970E-03   1.20725846    
  0.812500000      0.375000000       1.28652084       4.32381313E-03   1.28652811    
  0.812500000      0.425000012       1.33856177       3.03864153E-03   1.33856523    
  0.812500000      0.475000024       1.36429203       7.95716885E-04   1.36429226    
  0.812500000      0.524999976       1.36425662      -1.79143518E-03   1.36425781    
  0.812500000      0.575000048       1.33845425      -4.02105274E-03   1.33846033    
  0.812500000      0.625000000       1.28634238      -5.28102880E-03   1.28635323    
  0.812500000      0.675000012       1.20700574      -5.20977098E-03   1.20701694    
  0.812500000      0.725000024       1.09944439      -3.80702387E-03   1.09945107    
  0.812500000      0.774999976      0.962917686      -1.46670430E-03  0.962918818    
  0.812500000      0.825000048      0.797254086       1.07914780E-03  0.797254860    
  0.812500000      0.875000000      0.603034973       2.89895083E-03  0.603041947    
  0.812500000      0.925000012      0.381605685       3.05947824E-03  0.381617934    
  0.812500000      0.975000024      0.134909928       1.30750716E-03  0.134916261    
  0.812500000       1.00000000       0.00000000       0.00000000       0.00000000    
  0.937500000       0.00000000       0.00000000       0.00000000       0.00000000    
  0.937500000       2.50000004E-02  0.131837368      -1.87563500E-03  0.131850719    
  0.937500000       7.50000030E-02  0.372848451      -4.84120008E-03  0.372879893    
  0.937500000      0.125000000      0.589689732      -6.20072195E-03  0.589722335    
  0.937500000      0.175000012      0.780940711      -6.14574831E-03  0.780964911    
  0.937500000      0.224999994      0.945477784      -5.16463164E-03  0.945491910    
  0.937500000      0.275000006       1.08256888      -3.77084874E-03   1.08257544    
  0.937500000      0.324999988       1.19189215      -2.40937620E-03   1.19189453    
  0.937500000      0.375000000       1.27348042      -1.37679861E-03   1.27348113    
  0.937500000      0.425000012       1.32758772      -7.76497880E-04   1.32758796    
  0.937500000      0.475000024       1.35451627      -5.24175412E-04   1.35451639    
  0.937500000      0.524999976       1.35446548      -4.00921999E-04   1.35446548    
  0.937500000      0.575000048       1.32743692      -1.38623887E-04   1.32743692    
  0.937500000      0.625000000       1.27323496       4.80801478E-04   1.27323508    
  0.937500000      0.675000012       1.19156218       1.53965340E-03   1.19156313    
  0.937500000      0.725000024       1.08217311       2.93249916E-03   1.08217704    
  0.937500000      0.774999976      0.945042253       4.36077779E-03  0.945052326    
  0.937500000      0.825000048      0.780501008       5.37654106E-03  0.780519545    
  0.937500000      0.875000000      0.589295626       5.46356849E-03  0.589320958    
  0.937500000      0.925000012      0.372561723       4.14093025E-03  0.372584730    
  0.937500000      0.975000024      0.131729499       1.53638248E-03  0.131738454    
  0.937500000       1.00000000       0.00000000       0.00000000       0.00000000    
   1.06250000       0.00000000       0.00000000       0.00000000       0.00000000    
   1.06250000       2.50000004E-02  0.129484937      -1.97144388E-03  0.129499942    
   1.06250000       7.50000030E-02  0.366093099      -5.30739687E-03  0.366131574    
   1.06250000      0.125000000      0.579145908      -7.33487774E-03  0.579192340    
   1.06250000      0.175000012      0.767489851      -8.08953959E-03  0.767532527    
   1.06250000      0.224999994      0.930152893      -7.85383582E-03  0.930186093    
   1.06250000      0.275000006       1.06638312      -6.93476619E-03   1.06640565    
   1.06250000      0.324999988       1.17566419      -5.62107097E-03   1.17567766    
   1.06250000      0.375000000       1.25770235      -4.14107880E-03   1.25770915    
   1.06250000      0.425000012       1.31237960      -2.63653230E-03   1.31238222    
   1.06250000      0.475000024       1.33967984      -1.16033712E-03   1.33968031    
   1.06250000      0.524999976       1.33961809       3.00629355E-04   1.33961809    
   1.06250000      0.575000048       1.31219721       1.78391568E-03   1.31219840    
   1.06250000      0.625000000       1.25740719       3.30237462E-03   1.25741148    
   1.06250000      0.675000012       1.17527127       4.80155926E-03   1.17528105    
   1.06250000      0.725000024       1.06591678       6.13784278E-03   1.06593442    
   1.06250000      0.774999976      0.929645717       7.08125718E-03  0.929672718    
   1.06250000      0.825000048      0.766985238       7.34119397E-03  0.767020404    
   1.06250000      0.875000000      0.578699172       6.60950644E-03  0.578736901    
   1.06250000      0.925000012      0.365771323       4.61203326E-03  0.365800381    
   1.06250000      0.975000024      0.129363790       1.63319393E-03  0.129374102    
   1.06250000       1.00000000       0.00000000       0.00000000       0.00000000    
   1.18750000       0.00000000       0.00000000       0.00000000       0.00000000    
   1.18750000       2.50000004E-02  0.127464935      -2.00825790E-03  0.127480760    
   1.18750000       7.50000030E-02  0.360309780      -5.49483206E-03  0.360351652    
   1.18750000      0.125000000      0.570011854      -7.80647155E-03  0.570065320    
   1.18750000      0.175000012      0.755548716      -8.91860761E-03  0.755601346    
   1.18750000      0.224999994      0.916039467      -9.02497210E-03  0.916083932    
   1.18750000      0.275000006       1.05075133      -8.33650120E-03   1.05078447    
   1.18750000      0.324999988       1.15910316      -7.06263818E-03   1.15912461    
   1.18750000      0.375000000       1.24066532      -5.39240520E-03   1.24067700    
   1.18750000      0.425000012       1.29515243      -3.48008936E-03   1.29515707    
   1.18750000      0.475000024       1.32239795      -1.44135777E-03   1.32239878    
   1.18750000      0.524999976       1.32232904       6.37331512E-04   1.32232916    
   1.18750000      0.575000048       1.29494834       2.68068933E-03   1.29495108    
   1.18750000      0.625000000       1.24033523       4.60213702E-03   1.24034381    
   1.18750000      0.675000012       1.15866625       6.28490560E-03   1.15868330    
   1.18750000      0.725000024       1.05023646       7.57383928E-03   1.05026376    
   1.18750000      0.774999976      0.915484488       8.27836525E-03  0.915521920    
   1.18750000      0.825000048      0.755001664       8.18766467E-03  0.755046070    
   1.18750000      0.875000000      0.569531560       7.09117670E-03  0.569575727    
   1.18750000      0.925000012      0.359965980       4.80402820E-03  0.359998047    
   1.18750000      0.975000024      0.127335817       1.67114055E-03  0.127346784    
   1.18750000       1.00000000       0.00000000       0.00000000       0.00000000    
   1.31250000       0.00000000       0.00000000       0.00000000       0.00000000    
   1.31250000       2.50000004E-02  0.125568435      -2.02067918E-03  0.125584692    
   1.31250000       7.50000030E-02  0.354917645      -5.56203816E-03  0.354961216    
   1.31250000      0.125000000      0.561473012      -7.98352342E-03  0.561529756    
   1.31250000      0.175000012      0.744271517      -9.24119540E-03  0.744328916    
   1.31250000      0.224999994      0.902482748      -9.49324388E-03  0.902532697    
   1.31250000      0.275000006       1.03539872      -8.90827924E-03   1.03543711    
   1.31250000      0.324999988       1.14242482      -7.65907764E-03   1.14245045    
   1.31250000      0.375000000       1.22308397      -5.91416657E-03   1.22309828    
   1.31250000      0.425000012       1.27702308      -3.83088551E-03   1.27702880    
   1.31250000      0.475000024       1.30401134      -1.55202544E-03   1.30401218    
   1.31250000      0.524999976       1.30393791       7.91732455E-04   1.30393815    
   1.31250000      0.575000048       1.27680504       3.07374308E-03   1.27680874    
   1.31250000      0.625000000       1.22273231       5.16246026E-03   1.22274327    
   1.31250000      0.675000012       1.14196086       6.91457745E-03   1.14198184    
   1.31250000      0.725000024       1.03485465       8.17232858E-03   1.03488696    
   1.31250000      0.774999976      0.901899576       8.76649283E-03  0.901942194    
   1.31250000      0.825000048      0.743699908       8.52369703E-03  0.743748784    
   1.31250000      0.875000000      0.560974240       7.27564050E-03  0.561021447    
   1.31250000      0.925000012      0.354562223       4.87391697E-03  0.354595721    
   1.31250000      0.975000024      0.125435412       1.68397499E-03  0.125446707    
   1.31250000       1.00000000       0.00000000       0.00000000       0.00000000    
   1.43750000       0.00000000       0.00000000       0.00000000       0.00000000    
   1.43750000       2.50000004E-02  0.123709157      -2.02308060E-03  0.123725697    
   1.43750000       7.50000030E-02  0.349664330      -5.57988696E-03  0.349708855    
   1.43750000      0.125000000      0.553161979      -8.03788286E-03  0.553220391    
   1.43750000      0.175000012      0.733262300      -9.34817269E-03  0.733321905    
   1.43750000      0.224999994      0.889162421      -9.65628866E-03  0.889214873    
   1.43750000      0.275000006       1.02017546      -9.11394320E-03   1.02021623    
   1.43750000      0.324999988       1.12571263      -7.87815731E-03   1.12574029    
   1.43750000      0.375000000       1.20528626      -6.10788073E-03   1.20530176    
   1.43750000      0.425000012       1.25852096      -3.95989185E-03   1.25852728    
   1.43750000      0.475000024       1.28516316      -1.58741488E-03   1.28516412    
   1.43750000      0.524999976       1.28508711       8.59811786E-04   1.28508735    
   1.43750000      0.575000048       1.25829530       3.23371682E-03   1.25829947    
   1.43750000      0.625000000       1.20492315       5.38436789E-03   1.20493519    
   1.43750000      0.675000012       1.12523520       7.15795765E-03   1.12525797    
   1.43750000      0.725000024       1.01961708       8.39733519E-03   1.01965165    
   1.43750000      0.774999976      0.888566077       8.94362107E-03  0.888611078    
   1.43750000      0.825000048      0.732679963       8.63985624E-03  0.732730865    
   1.43750000      0.875000000      0.552655995       7.33518507E-03  0.552704692    
   1.43750000      0.925000012      0.349305272       4.89406381E-03  0.349339545    
   1.43750000      0.975000024      0.123575196       1.68695196E-03  0.123586714    
   1.43750000       1.00000000       0.00000000       0.00000000       0.00000000    
   1.56250000       0.00000000       0.00000000       0.00000000       0.00000000    
   1.56250000       2.50000004E-02  0.121856086      -2.02273647E-03  0.121872872    
   1.56250000       7.50000030E-02  0.344449699      -5.58142830E-03  0.344494909    
   1.56250000      0.125000000      0.544925094      -8.04743730E-03  0.544984519    
   1.56250000      0.175000012      0.722348690      -9.37231071E-03  0.722409487    
   1.56250000      0.224999994      0.875933051      -9.69818328E-03  0.875986755    
   1.56250000      0.275000006       1.00500822      -9.17108357E-03   1.00505006    
   1.56250000      0.324999988       1.10899663      -7.94197805E-03   1.10902512    
   1.56250000      0.375000000       1.18741405      -6.16493775E-03   1.18743002    
   1.56250000      0.425000012       1.23988223      -3.99632938E-03   1.23988867    
   1.56250000      0.475000024       1.26614285      -1.59297511E-03   1.26614380    
   1.56250000      0.524999976       1.26606560       8.88582261E-04   1.26606596    
   1.56250000      0.575000048       1.23965347       3.29205906E-03   1.23965788    
   1.56250000      0.625000000       1.18704653       5.46108279E-03   1.18705904    
   1.56250000      0.675000012       1.10851479       7.23852869E-03   1.10853851    
   1.56250000      0.725000024       1.00444591       8.46800767E-03   1.00448167    
   1.56250000      0.774999976      0.875334144       8.99528153E-03  0.875380337    
   1.56250000      0.825000048      0.721765518       8.67014844E-03  0.721817613    
   1.56250000      0.875000000      0.544419765       7.34797027E-03  0.544469357    
   1.56250000      0.925000012      0.344092399       4.89685126E-03  0.344127238    
   1.56250000      0.975000024      0.121723339       1.68690353E-03  0.121735021    
   1.56250000       1.00000000       0.00000000       0.00000000       0.00000000    
   1.68750000       0.00000000       0.00000000       0.00000000       0.00000000    
   1.68750000       2.50000004E-02  0.120000646      -2.02158559E-03  0.120017670    
   1.68750000       7.50000030E-02  0.339239061      -5.57790743E-03  0.339284927    
   1.68750000      0.125000000      0.536704302      -8.04272387E-03  0.536764562    
   1.68750000      0.175000012      0.711461842      -9.36891511E-03  0.711523533    
   1.68750000      0.224999994      0.862733841      -9.69848223E-03  0.862788320    
   1.68750000      0.275000006      0.989863634      -9.17585008E-03  0.989906192    
   1.68750000      0.324999988       1.09228539      -7.94954225E-03   1.09231424    
   1.68750000      0.375000000       1.16952360      -6.17232360E-03   1.16953993    
   1.68750000      0.425000012       1.22120452      -3.99987586E-03   1.22121108    
   1.68750000      0.475000024       1.24707103      -1.58967578E-03   1.24707198    
   1.68750000      0.524999976       1.24699402       8.99664883E-04   1.24699438    
   1.68750000      0.575000048       1.22097588       3.30928527E-03   1.22098041    
   1.68750000      0.625000000       1.16915703       5.48072252E-03   1.16916990    
   1.68750000      0.675000012       1.09180522       7.25644641E-03   1.09182930    
   1.68750000      0.725000024      0.989304185       8.48089345E-03  0.989340544    
   1.68750000      0.774999976      0.862138987       9.00177564E-03  0.862185955    
   1.68750000      0.825000048      0.710883856       8.67119990E-03  0.710936725    
   1.68750000      0.875000000      0.536204338       7.34609645E-03  0.536254704    
   1.68750000      0.925000012      0.338886023       4.89474647E-03  0.338921368    
   1.68750000      0.975000024      0.119869784       1.68608432E-03  0.119881645    
   1.68750000       1.00000000       0.00000000       0.00000000       0.00000000    
   1.81250000       0.00000000       0.00000000       0.00000000       0.00000000    
   1.81250000       2.50000004E-02  0.118141085      -2.02073553E-03  0.118158363    
   1.81250000       7.50000030E-02  0.334022522      -5.57469158E-03  0.334069043    
   1.81250000      0.125000000      0.528480649      -8.03642161E-03  0.528541744    
   1.81250000      0.175000012      0.700577259      -9.35997628E-03  0.700639784    
   1.81250000      0.224999994      0.849541128      -9.68816504E-03  0.849596381    
   1.81250000      0.275000006      0.974726439      -9.16570239E-03  0.974769473    
   1.81250000      0.324999988       1.07557940      -7.94079248E-03   1.07560873    
   1.81250000      0.375000000       1.15163374      -6.16522133E-03   1.15165031    
   1.81250000      0.425000012       1.20252228      -3.99419200E-03   1.20252895    
   1.81250000      0.475000024       1.22799194      -1.58524164E-03   1.22799301    
   1.81250000      0.524999976       1.22791553       9.03067645E-04   1.22791588    
   1.81250000      0.575000048       1.20229626       3.31132906E-03   1.20230079    
   1.81250000      0.625000000       1.15127134       5.48065500E-03   1.15128446    
   1.81250000      0.675000012       1.07510543       7.25382008E-03   1.07512987    
   1.81250000      0.725000024      0.974174500       8.47576372E-03  0.974211395    
   1.81250000      0.774999976      0.848954678       8.99504591E-03  0.849002302    