 TITLE= "TESTPLOT" 
 VARIABLES="x","y","fx","fy","magf" 
 ZONE T="1", I=          81 , J=          21
   0.00000000       0.00000000       1.00000000       0.00000000       1.00000000    
   0.00000000       2.50000004E-02   1.00000000       0.00000000       1.00000000    
   0.00000000       7.50000030E-02   1.00000000       0.00000000       1.00000000    
   0.00000000      0.125000000       1.00000000       0.00000000       1.00000000    
   0.00000000      0.175000012       1.00000000       0.00000000       1.00000000    
   0.00000000      0.224999994       1.00000000       0.00000000       1.00000000    
   0.00000000      0.275000006       1.00000000       0.00000000       1.00000000    
   0.00000000      0.324999988       1.00000000       0.00000000       1.00000000    
   0.00000000      0.375000000       1.00000000       0.00000000       1.00000000    
   0.00000000      0.425000012       1.00000000       0.00000000       1.00000000    
   0.00000000      0.475000024       1.00000000       0.00000000       1.00000000    
   0.00000000      0.524999976       1.00000000       0.00000000       1.00000000    
   0.00000000      0.575000048       1.00000000       0.00000000       1.00000000    
   0.00000000      0.625000000       1.00000000       0.00000000       1.00000000    
   0.00000000      0.675000012       1.00000000       0.00000000       1.00000000    
   0.00000000      0.725000024       1.00000000       0.00000000       1.00000000    
   0.00000000      0.774999976       1.00000000       0.00000000       1.00000000    
   0.00000000      0.825000048       1.00000000       0.00000000       1.00000000    
   0.00000000      0.875000000       1.00000000       0.00000000       1.00000000    
   0.00000000      0.925000012       1.00000000       0.00000000       1.00000000    
   0.00000000      0.975000024       1.00000000       0.00000000       1.00000000    
   0.00000000       1.00000000       1.00000000       0.00000000       1.00000000    
   6.25000000E-02   0.00000000      0.500000000       0.00000000      0.500000000    
   6.25000000E-02   2.50000004E-02  0.716375470      0.111082144      0.724936545    
   6.25000000E-02   7.50000030E-02  0.919961333      0.251633584      0.953754842    
   6.25000000E-02  0.125000000       1.01071870      0.274273276       1.04727173    
   6.25000000E-02  0.175000012       1.04558957      0.246667549       1.07429159    
   6.25000000E-02  0.224999994       1.05377817      0.201840729       1.07293439    
   6.25000000E-02  0.275000006       1.05048347      0.155057341       1.06186545    
   6.25000000E-02  0.324999988       1.04347801      0.112394363       1.04951358    
   6.25000000E-02  0.375000000       1.03654945       7.53053054E-02   1.03928137    
   6.25000000E-02  0.425000012       1.03140259       4.30462882E-02   1.03230047    
   6.25000000E-02  0.475000024       1.02872121       1.39184780E-02   1.02881539    
   6.25000000E-02  0.524999976       1.02872717      -1.41390720E-02   1.02882433    
   6.25000000E-02  0.575000048       1.03142071      -4.32765521E-02   1.03232825    
   6.25000000E-02  0.625000000       1.03658080      -7.55553544E-02   1.03933072    
   6.25000000E-02  0.675000012       1.04352379     -0.112675242       1.04958928    
   6.25000000E-02  0.725000024       1.05054522     -0.155380845       1.06197381    
   6.25000000E-02  0.774999976       1.05385661     -0.202219576       1.07308269    
   6.25000000E-02  0.825000048       1.04568338     -0.247113645       1.07448542    
   6.25000000E-02  0.875000000       1.01082110     -0.274793863       1.04750705    
   6.25000000E-02  0.925000012      0.920059502     -0.252218485      0.954004049    
   6.25000000E-02  0.975000024      0.716444969     -0.111387588      0.725052118    
   6.25000000E-02   1.00000000      0.500000000       0.00000000      0.500000000    
  0.187500000       0.00000000       0.00000000       0.00000000       0.00000000    
  0.187500000       2.50000004E-02  0.338601172       3.52714621E-02  0.340433300    
  0.187500000       7.50000030E-02  0.729732156      0.112046823      0.738284171    
  0.187500000      0.125000000      0.947840512      0.180420384      0.964859128    
  0.187500000      0.175000012       1.06118488      0.216720253       1.08308864    
  0.187500000      0.224999994       1.11296201      0.221421301       1.13477397    
  0.187500000      0.275000006       1.13060868      0.202268809       1.14855933    
  0.187500000      0.324999988       1.13125134      0.167560995       1.14359355    
  0.187500000      0.375000000       1.12526298      0.123844579       1.13205755    
  0.187500000      0.425000012       1.11865902       7.55048618E-02   1.12120426    
  0.187500000      0.475000024       1.11466980       2.51397472E-02   1.11495328    
  0.187500000      0.524999976       1.11468816      -2.57774424E-02   1.11498618    
  0.187500000      0.575000048       1.11871338      -7.61523992E-02   1.12130225    
  0.187500000      0.625000000       1.12535286     -0.124510318       1.13221991    
  0.187500000      0.675000012       1.13137579     -0.168250754       1.14381790    
  0.187500000      0.725000024       1.13076472     -0.202984333       1.14883924    
  0.187500000      0.774999976       1.11314452     -0.222158939       1.13509703    
  0.187500000      0.825000048       1.06138349     -0.217470348       1.08343351    
  0.187500000      0.875000000      0.948038101     -0.181167603      0.965193212    
  0.187500000      0.925000012      0.729903698     -0.112764746      0.738563001    
  0.187500000      0.975000024      0.338711113      -3.56187262E-02  0.340578794    
  0.187500000       1.00000000       0.00000000       0.00000000       0.00000000    
  0.312500000       0.00000000       0.00000000       0.00000000       0.00000000    
  0.312500000       2.50000004E-02  0.212820798       1.02640819E-02  0.213068157    
  0.312500000       7.50000030E-02  0.558381319       4.24201488E-02  0.559990346    
  0.312500000      0.125000000      0.813124776       8.61905813E-02  0.817680120    
  0.312500000      0.175000012      0.987193465      0.123100154      0.994839013    
  0.312500000      0.224999994       1.09785736      0.143768460       1.10723078    
  0.312500000      0.275000006       1.16281748      0.145812005       1.17192388    
  0.312500000      0.324999988       1.19736934      0.130922705       1.20450568    
  0.312500000      0.375000000       1.21347427      0.102641717       1.21780753    
  0.312500000      0.425000012       1.21970582       6.50126860E-02   1.22143734    
  0.312500000      0.475000024       1.22151685       2.19545793E-02   1.22171414    
  0.312500000      0.524999976       1.22154117      -2.28739865E-02   1.22175527    
  0.312500000      0.575000048       1.21977615      -6.59307018E-02   1.22155666    
  0.312500000      0.625000000       1.21358514     -0.103555769       1.21799541    
  0.312500000      0.675000012       1.19751287     -0.131828099       1.20474720    
  0.312500000      0.725000024       1.16298199     -0.146701381       1.17219818    
  0.312500000      0.774999976       1.09802842     -0.144632220       1.10751295    
  0.312500000      0.825000048      0.987354636     -0.123927683      0.995101631    
  0.312500000      0.875000000      0.813260376      -8.69728103E-02  0.817897737    
  0.312500000      0.925000012      0.558478832      -4.31448445E-02  0.560142934    
  0.312500000      0.975000024      0.212874994      -1.06099350E-02  0.213139236    
  0.312500000       1.00000000       0.00000000       0.00000000       0.00000000    
  0.437500000       0.00000000       0.00000000       0.00000000       0.00000000    
  0.437500000       2.50000004E-02  0.168293715       2.77020270E-03  0.168316513    
  0.437500000       7.50000030E-02  0.466609925       1.52126774E-02  0.466857851    
  0.437500000      0.125000000      0.715052724       3.70972827E-02  0.716014385    
  0.437500000      0.175000012      0.910161495       5.99559657E-02  0.912134111    
  0.437500000      0.224999994       1.05513144       7.69217312E-02   1.05793166    
  0.437500000      0.275000006       1.15716398       8.39629322E-02   1.16020608    
  0.437500000      0.324999988       1.22504377       7.97777325E-02   1.22763872    
  0.437500000      0.375000000       1.26734972       6.51732683E-02   1.26902437    
  0.437500000      0.425000012       1.29127729       4.23582681E-02   1.29197180    
  0.437500000      0.475000024       1.30193329       1.43557722E-02   1.30201244    
  0.437500000      0.524999976       1.30195045      -1.54114077E-02   1.30204165    
  0.437500000      0.575000048       1.29132557      -4.34032306E-02   1.29205477    
  0.437500000      0.625000000       1.26742053      -6.61968589E-02   1.26914811    
  0.437500000      0.675000012       1.22512615      -8.07686895E-02   1.22778571    
  0.437500000      0.725000024       1.15724516      -8.49108547E-02   1.16035604    
  0.437500000      0.774999976       1.05519795      -7.78182447E-02   1.05806351    
  0.437500000      0.825000048      0.910203576      -6.07955530E-02  0.912231684    
  0.437500000      0.875000000      0.715068817      -3.78791280E-02  0.716071367    
  0.437500000      0.925000012      0.466609299      -1.59333050E-02  0.466881245    
  0.437500000      0.975000024      0.168300033      -3.11409123E-03  0.168328837    
  0.437500000       1.00000000       0.00000000       0.00000000       0.00000000    
  0.562500000       0.00000000       0.00000000       0.00000000       0.00000000    
  0.562500000       2.50000004E-02  0.149353653       2.91456126E-05  0.149353653    
  0.562500000       7.50000030E-02  0.420289665       3.76960426E-03  0.420306563    
  0.562500000      0.125000000      0.657095790       1.33132879E-02  0.657230616    
  0.562500000      0.175000012      0.855827332       2.50976048E-02  0.856195271    
  0.562500000      0.224999994       1.01567197       3.53801921E-02   1.01628804    
  0.562500000      0.275000006       1.13864136       4.12650071E-02   1.13938880    
  0.562500000      0.324999988       1.22867417       4.11413908E-02   1.22936285    
  0.562500000      0.375000000       1.29054093       3.47521603E-02   1.29100871    
  0.562500000      0.425000012       1.32880306       2.30154246E-02   1.32900238    
  0.562500000      0.475000024       1.34698308       7.72257708E-03   1.34700513    
  0.562500000      0.524999976       1.34698415      -8.80869012E-03   1.34701300    
  0.562500000      0.575000048       1.32880366      -2.40863524E-02   1.32902193    
  0.562500000      0.625000000       1.29053330      -3.57939526E-02   1.29102957    
  0.562500000      0.675000012       1.22865033      -4.21419442E-02   1.22937286    
  0.562500000      0.725000024       1.13859367      -4.22141999E-02   1.13937593    
  0.562500000      0.774999976       1.01559675      -3.62713970E-02   1.01624429    
  0.562500000      0.825000048      0.855727434      -2.59288028E-02  0.856120169    
  0.562500000      0.875000000      0.656985283      -1.40870288E-02  0.657136321    
  0.562500000      0.925000012      0.420197070      -4.48500412E-03  0.420221001    
  0.562500000      0.975000024      0.149321288      -3.71446571E-04  0.149321750    
  0.562500000       1.00000000       0.00000000       0.00000000       0.00000000    
  0.687500000       0.00000000       0.00000000       0.00000000       0.00000000    
  0.687500000       2.50000004E-02  0.140167400      -1.13113888E-03  0.140171960    
  0.687500000       7.50000030E-02  0.395970583      -1.39031152E-03  0.395973027    
  0.687500000      0.125000000      0.623791277       1.83289009E-03  0.623793960    
  0.687500000      0.175000012      0.820878386       7.07654469E-03  0.820908844    
  0.687500000      0.224999994      0.985789478       1.24576855E-02  0.985868216    
  0.687500000      0.275000006       1.11858499       1.62817352E-02   1.11870348    
  0.687500000      0.324999988       1.22062755       1.73810460E-02   1.22075129    
  0.687500000      0.375000000       1.29409957       1.53005756E-02   1.29419005    
  0.687500000      0.425000012       1.34138107       1.03176422E-02   1.34142077    
  0.687500000      0.475000024       1.36445522       3.32511612E-03   1.36445928    
  0.687500000      0.524999976       1.36443770      -4.37924732E-03   1.36444473    
  0.687500000      0.575000048       1.34132588      -1.13567859E-02   1.34137392    
  0.687500000      0.625000000       1.29400325      -1.63107365E-02   1.29410613    
  0.687500000      0.675000012       1.22048831      -1.83507167E-02   1.22062624    
  0.687500000      0.725000024       1.11840320      -1.72024220E-02   1.11853552    
  0.687500000      0.774999976      0.985572875      -1.33247916E-02  0.985662937    
  0.687500000      0.825000048      0.820642948      -7.88938254E-03  0.820680857    
  0.687500000      0.875000000      0.623566031      -2.59468867E-03  0.623571455    
  0.687500000      0.925000012      0.395798385       6.80522877E-04  0.395798951    
  0.687500000      0.975000024      0.140103489       7.90181221E-04  0.140105724    
  0.687500000       1.00000000       0.00000000       0.00000000       0.00000000    
  0.812500000       0.00000000       0.00000000       0.00000000       0.00000000    
  0.812500000       2.50000004E-02  0.135172516      -1.64745585E-03  0.135182545    
  0.812500000       7.50000030E-02  0.382107764      -3.76598327E-03  0.382126331    
  0.812500000      0.125000000      0.603608131      -3.65291629E-03  0.603619218    
  0.812500000      0.175000012      0.797827959      -1.87580229E-03  0.797830164    
  0.812500000      0.224999994      0.963462472       6.26025954E-04  0.963462651    
  0.812500000      0.275000006       1.09994483       2.92294961E-03   1.09994876    
  0.812500000      0.324999988       1.20745039       4.28550038E-03   1.20745802    
  0.812500000      0.375000000       1.28672242       4.32282872E-03   1.28672969    
  0.812500000      0.425000012       1.33876371       3.03849974E-03   1.33876717    
  0.812500000      0.475000024       1.36449599       7.96497450E-04   1.36449623    
  0.812500000      0.524999976       1.36446059      -1.78973109E-03   1.36446178    
  0.812500000      0.575000048       1.33865666      -4.01856471E-03   1.33866262    
  0.812500000      0.625000000       1.28654408      -5.27780037E-03   1.28655493    
  0.812500000      0.675000012       1.20720625      -5.20551344E-03   1.20721745    
  0.812500000      0.725000024       1.09964442      -3.80145106E-03   1.09965098    
  0.812500000      0.774999976      0.963123560      -1.46026409E-03  0.963124692    
  0.812500000      0.825000048      0.797477841       1.08541863E-03  0.797478557    
  0.812500000      0.875000000      0.603287697       2.90361466E-03  0.603294671    
  0.812500000      0.925000012      0.381870449       3.06123588E-03  0.381882727    
  0.812500000      0.975000024      0.135083348       1.30756292E-03  0.135089681    
  0.812500000       1.00000000       0.00000000       0.00000000       0.00000000    
  0.937500000       0.00000000       0.00000000       0.00000000       0.00000000    
  0.937500000       2.50000004E-02  0.132037327      -1.87480904E-03  0.132050633    
  0.937500000       7.50000030E-02  0.373153895      -4.84105432E-03  0.373185307    
  0.937500000      0.125000000      0.589980900      -6.20317878E-03  0.590013504    
  0.937500000      0.175000012      0.781198144      -6.14955276E-03  0.781222343    
  0.937500000      0.224999994      0.945714593      -5.16824704E-03  0.945728719    
  0.937500000      0.275000006       1.08279848      -3.77339637E-03   1.08280504    
  0.937500000      0.324999988       1.19212139      -2.41101184E-03   1.19212389    
  0.937500000      0.375000000       1.27371192      -1.37752877E-03   1.27371264    
  0.937500000      0.425000012       1.32782006      -7.76423258E-04   1.32782030    
  0.937500000      0.475000024       1.35475004      -5.23540948E-04   1.35475016    
  0.937500000      0.524999976       1.35469985      -3.99467652E-04   1.35469985    
  0.937500000      0.575000048       1.32767010      -1.36531278E-04   1.32767010    
  0.937500000      0.625000000       1.27346683       4.83643467E-04   1.27346694    
  0.937500000      0.675000012       1.19179225       1.54364831E-03   1.19179320    
  0.937500000      0.725000024       1.08240283       2.93770176E-03   1.08240676    
  0.937500000      0.774999976      0.945278764       4.36690310E-03  0.945288837    
  0.937500000      0.825000048      0.780758858       5.38257044E-03  0.780777395    
  0.937500000      0.875000000      0.589586735       5.46804909E-03  0.589612067    
  0.937500000      0.925000012      0.372866750       4.14268998E-03  0.372889757    
  0.937500000      0.975000024      0.131929129       1.53647154E-03  0.131938070    
  0.937500000       1.00000000       0.00000000       0.00000000       0.00000000    
   1.06250000       0.00000000       0.00000000       0.00000000       0.00000000    
   1.06250000       2.50000004E-02  0.129711002      -1.97048462E-03  0.129725978    
   1.06250000       7.50000030E-02  0.366438448      -5.30705461E-03  0.366476864    
   1.06250000      0.125000000      0.579474926      -7.33741838E-03  0.579521358    
   1.06250000      0.175000012      0.767780662      -8.09349213E-03  0.767823339    
   1.06250000      0.224999994      0.930419922      -7.85760768E-03  0.930453122    
   1.06250000      0.275000006       1.06664181      -6.93775201E-03   1.06666434    
   1.06250000      0.324999988       1.17592239      -5.62307192E-03   1.17593575    
   1.06250000      0.375000000       1.25796247      -4.14216565E-03   1.25796926    
   1.06250000      0.425000012       1.31264114      -2.63681193E-03   1.31264377    
   1.06250000      0.475000024       1.33994198      -1.15985342E-03   1.33994246    
   1.06250000      0.524999976       1.33988130       3.01922904E-04   1.33988130    
   1.06250000      0.575000048       1.31245947       1.78593397E-03   1.31246066    
   1.06250000      0.625000000       1.25766778       3.30502167E-03   1.25767207    
   1.06250000      0.675000012       1.17552996       4.80523985E-03   1.17553973    
   1.06250000      0.725000024       1.06617570       6.14293106E-03   1.06619346    
   1.06250000      0.774999976      0.929912925       7.08718784E-03  0.929939926    
   1.06250000      0.825000048      0.767276645       7.34712835E-03  0.767311871    
   1.06250000      0.875000000      0.579028130       6.61393907E-03  0.579065919    
   1.06250000      0.925000012      0.366116166       4.61357320E-03  0.366145223    
   1.06250000      0.975000024      0.129589379       1.63319951E-03  0.129599676    
   1.06250000       1.00000000       0.00000000       0.00000000       0.00000000    
   1.18750000       0.00000000       0.00000000       0.00000000       0.00000000    
   1.18750000       2.50000004E-02  0.127716094      -2.00763880E-03  0.127731875    
   1.18750000       7.50000030E-02  0.360693544      -5.49519202E-03  0.360735387    
   1.18750000      0.125000000      0.570377827      -7.80953374E-03  0.570431292    
   1.18750000      0.175000012      0.755871892      -8.92320462E-03  0.755924523    
   1.18750000      0.224999994      0.916335940      -9.02959518E-03  0.916380405    
   1.18750000      0.275000006       1.05103827      -8.34009983E-03   1.05107141    
   1.18750000      0.324999988       1.15938950      -7.06516951E-03   1.15941107    
   1.18750000      0.375000000       1.24095392      -5.39411465E-03   1.24096560    
   1.18750000      0.425000012       1.29544234      -3.48083908E-03   1.29544711    
   1.18750000      0.475000024       1.32268858      -1.44102110E-03   1.32268929    
   1.18750000      0.524999976       1.32262063       6.38777856E-04   1.32262075    
   1.18750000      0.575000048       1.29523897       2.68312497E-03   1.29524171    
   1.18750000      0.625000000       1.24062443       4.60540736E-03   1.24063301    
   1.18750000      0.675000012       1.15895343       6.28921529E-03   1.15897048    
   1.18750000      0.725000024       1.05052412       7.57904630E-03   1.05055141    
   1.18750000      0.774999976      0.915781379       8.28429498E-03  0.915818810    
   1.18750000      0.825000048      0.755325198       8.19372013E-03  0.755369663    
   1.18750000      0.875000000      0.569897532       7.09560700E-03  0.569941700    
   1.18750000      0.925000012      0.360349655       4.80563566E-03  0.360381693    
   1.18750000      0.975000024      0.127586752       1.67119957E-03  0.127597690    
   1.18750000       1.00000000       0.00000000       0.00000000       0.00000000    
   1.31250000       0.00000000       0.00000000       0.00000000       0.00000000    
   1.31250000       2.50000004E-02  0.125844389      -2.01975298E-03  0.125860602    
   1.31250000       7.50000030E-02  0.355339587      -5.56183420E-03  0.355383128    
   1.31250000      0.125000000      0.561875463      -7.98629783E-03  0.561932206    
   1.31250000      0.175000012      0.744626880      -9.24577285E-03  0.744684279    
   1.31250000      0.224999994      0.902808666      -9.49797034E-03  0.902858615    
   1.31250000      0.275000006       1.03571439      -8.91229045E-03   1.03575277    
   1.31250000      0.324999988       1.14273977      -7.66222226E-03   1.14276540    
   1.31250000      0.375000000       1.22340143      -5.91638731E-03   1.22341573    
   1.31250000      0.425000012       1.27734172      -3.83210182E-03   1.27734745    
   1.31250000      0.475000024       1.30433083      -1.55192334E-03   1.30433178    
   1.31250000      0.524999976       1.30425787       7.93154875E-04   1.30425811    
   1.31250000      0.575000048       1.27712440       3.07627791E-03   1.27712810    
   1.31250000      0.625000000       1.22305012       5.16592804E-03   1.22306108    
   1.31250000      0.675000012       1.14227676       6.91895792E-03   1.14229774    
   1.31250000      0.725000024       1.03517056       8.17770604E-03   1.03520286    
   1.31250000      0.774999976      0.902225614       8.77243467E-03  0.902268231    
   1.31250000      0.825000048      0.744055390       8.52945447E-03  0.744104326    
   1.31250000      0.875000000      0.561376691       7.28009269E-03  0.561423898    
   1.31250000      0.925000012      0.354984283       4.87572281E-03  0.355017751    
   1.31250000      0.975000024      0.125711337       1.68406754E-03  0.125722617    
   1.31250000       1.00000000       0.00000000       0.00000000       0.00000000    
   1.43750000       0.00000000       0.00000000       0.00000000       0.00000000    
   1.43750000       2.50000004E-02  0.124010414      -2.02260679E-03  0.124026909    
   1.43750000       7.50000030E-02  0.350124985      -5.58067020E-03  0.350169450    
   1.43750000      0.125000000      0.553601503      -8.04159511E-03  0.553659916    
   1.43750000      0.175000012      0.733650446      -9.35326330E-03  0.733710110    
   1.43750000      0.224999994      0.889518440      -9.66114178E-03  0.889570892    
   1.43750000      0.275000006       1.02052009      -9.11800936E-03   1.02056074    
   1.43750000      0.324999988       1.12605667      -7.88147934E-03   1.12608421    
   1.43750000      0.375000000       1.20563245      -6.11026725E-03   1.20564795    
   1.43750000      0.425000012       1.25886893      -3.96112492E-03   1.25887513    
   1.43750000      0.475000024       1.28551173      -1.58742373E-03   1.28551269    
   1.43750000      0.524999976       1.28543591       8.61015054E-04   1.28543615    
   1.43750000      0.575000048       1.25864351       3.23592173E-03   1.25864768    
   1.43750000      0.625000000       1.20526981       5.38732763E-03   1.20528185    
   1.43750000      0.675000012       1.12557936       7.16198469E-03   1.12560213    
   1.43750000      0.725000024       1.01996160       8.40267166E-03   1.01999617    
   1.43750000      0.774999976      0.888921618       8.95002019E-03  0.888966680    
   1.43750000      0.825000048      0.733067751       8.64651985E-03  0.733118713    
   1.43750000      0.875000000      0.553094983       7.34038465E-03  0.553143680    
   1.43750000      0.925000012      0.349765420       4.89635300E-03  0.349799693    
   1.43750000      0.975000024      0.123876169       1.68726174E-03  0.123887658    
   1.43750000       1.00000000       0.00000000       0.00000000       0.00000000    
   1.56250000       0.00000000       0.00000000       0.00000000       0.00000000    
   1.56250000       2.50000004E-02  0.122182220      -2.02207593E-03  0.122198947    
   1.56250000       7.50000030E-02  0.344948232      -5.58156706E-03  0.344993383    
   1.56250000      0.125000000      0.545400858      -8.05030856E-03  0.545460284    
   1.56250000      0.175000012      0.722768784      -9.37669724E-03  0.722829580    
   1.56250000      0.224999994      0.876318455      -9.70273837E-03  0.876372159    
   1.56250000      0.275000006       1.00538099      -9.17511433E-03   1.00542283    
   1.56250000      0.324999988       1.10936856      -7.94501044E-03   1.10939705    
   1.56250000      0.375000000       1.18778837      -6.16715662E-03   1.18780434    
   1.56250000      0.425000012       1.24025857      -3.99781764E-03   1.24026501    
   1.56250000      0.475000024       1.26652002      -1.59353635E-03   1.26652098    
   1.56250000      0.524999976       1.26644301       8.89032497E-04   1.26644337    
   1.56250000      0.575000048       1.24002993       3.29355104E-03   1.24003434    
   1.56250000      0.625000000       1.18742132       5.46357501E-03   1.18743384    
   1.56250000      0.675000012       1.10888672       7.24207703E-03   1.10891032    
   1.56250000      0.725000024       1.00481856       8.47272202E-03   1.00485432    
   1.56250000      0.774999976      0.875718653       9.00101103E-03  0.875764906    
   1.56250000      0.825000048      0.722184598       8.67608562E-03  0.722236693    
   1.56250000      0.875000000      0.544894516       7.35254027E-03  0.544944108    
   1.56250000      0.925000012      0.344590008       4.89864592E-03  0.344624817    
   1.56250000      0.975000024      0.122048900       1.68700283E-03  0.122060560    
   1.56250000       1.00000000       0.00000000       0.00000000       0.00000000    
   1.68750000       0.00000000       0.00000000       0.00000000       0.00000000    
   1.68750000       2.50000004E-02  0.120350659      -2.02090503E-03  0.120367624    
   1.68750000       7.50000030E-02  0.339774072      -5.57795120E-03  0.339819849    
   1.68750000      0.125000000      0.537214696      -8.04530270E-03  0.537274957    
   1.68750000      0.175000012      0.711912394      -9.37292911E-03  0.711974084    
   1.68750000      0.224999994      0.863146961      -9.70255584E-03  0.863201439    
   1.68750000      0.275000006      0.990263343      -9.17927921E-03  0.990305901    
   1.68750000      0.324999988       1.09268427      -7.95213412E-03   1.09271312    
   1.68750000      0.375000000       1.16992497      -6.17413037E-03   1.16994131    
   1.68750000      0.425000012       1.22160792      -4.00098460E-03   1.22161448    
   1.68750000      0.475000024       1.24747562      -1.59006205E-03   1.24747658    
   1.68750000      0.524999976       1.24739885       9.00030835E-04   1.24739921    
   1.68750000      0.575000048       1.22137988       3.31041310E-03   1.22138441    
   1.68750000      0.625000000       1.16955876       5.48276119E-03   1.16957164    
   1.68750000      0.675000012       1.09220409       7.25950440E-03   1.09222829    
   1.68750000      0.725000024      0.989703476       8.48497357E-03  0.989739835    
   1.68750000      0.774999976      0.862551332       9.00665484E-03  0.862598360    
   1.68750000      0.825000048      0.711333454       8.67606048E-03  0.711386383    
   1.68750000      0.875000000      0.536713839       7.34958611E-03  0.536764145    
   1.68750000      0.925000012      0.339420408       4.89590690E-03  0.339455724    
   1.68750000      0.975000024      0.120219253       1.68604474E-03  0.120231077    
   1.68750000       1.00000000       0.00000000       0.00000000       0.00000000    
   1.81250000       0.00000000       0.00000000       0.00000000       0.00000000    
   1.81250000       2.50000004E-02  0.118514024      -2.01996765E-03  0.118531235    
   1.81250000       7.50000030E-02  0.334592938      -5.57447458E-03  0.334639370    
   1.81250000      0.125000000      0.529025018      -8.03858787E-03  0.529086053    
   1.81250000      0.175000012      0.701057673      -9.36369970E-03  0.701120198    
   1.81250000      0.224999994      0.849981546      -9.69222467E-03  0.850036800    
   1.81250000      0.275000006      0.975152671      -9.16915946E-03  0.975195765    
   1.81250000      0.324999988       1.07600462      -7.94333313E-03   1.07603395    
   1.81250000      0.375000000       1.15206170      -6.16699830E-03   1.15207827    
   1.81250000      0.425000012       1.20295238      -3.99525370E-03   1.20295906    
   1.81250000      0.475000024       1.22842336      -1.58543908E-03   1.22842431    
   1.81250000      0.524999976       1.22834730       9.03471548E-04   1.22834766    
   1.81250000      0.575000048       1.20272672       3.31236632E-03   1.20273125    
   1.81250000      0.625000000       1.15169930       5.48255071E-03   1.15171230    
   1.81250000      0.675000012       1.07553029       7.25666340E-03   1.07555485    
   1.81250000      0.725000024      0.974600077       8.47961009E-03  0.974636972    
   1.81250000      0.774999976      0.849394262       8.99962336E-03  0.849441946    