 TITLE= "TESTPLOT" 
 VARIABLES="x","y","fx","fy","magf" 
 ZONE T="1", I=          81 , J=          21
   0.00000000       0.00000000       1.00000000       0.00000000       1.00000000    
   0.00000000       2.50000004E-02   1.00000000       0.00000000       1.00000000    
   0.00000000       7.50000030E-02   1.00000000       0.00000000       1.00000000    
   0.00000000      0.125000000       1.00000000       0.00000000       1.00000000    
   0.00000000      0.175000012       1.00000000       0.00000000       1.00000000    
   0.00000000      0.224999994       1.00000000       0.00000000       1.00000000    
   0.00000000      0.275000006       1.00000000       0.00000000       1.00000000    
   0.00000000      0.324999988       1.00000000       0.00000000       1.00000000    
   0.00000000      0.375000000       1.00000000       0.00000000       1.00000000    
   0.00000000      0.425000012       1.00000000       0.00000000       1.00000000    
   0.00000000      0.475000024       1.00000000       0.00000000       1.00000000    
   0.00000000      0.524999976       1.00000000       0.00000000       1.00000000    
   0.00000000      0.575000048       1.00000000       0.00000000       1.00000000    
   0.00000000      0.625000000       1.00000000       0.00000000       1.00000000    
   0.00000000      0.675000012       1.00000000       0.00000000       1.00000000    
   0.00000000      0.725000024       1.00000000       0.00000000       1.00000000    
   0.00000000      0.774999976       1.00000000       0.00000000       1.00000000    
   0.00000000      0.825000048       1.00000000       0.00000000       1.00000000    
   0.00000000      0.875000000       1.00000000       0.00000000       1.00000000    
   0.00000000      0.925000012       1.00000000       0.00000000       1.00000000    
   0.00000000      0.975000024       1.00000000       0.00000000       1.00000000    
   0.00000000       1.00000000       1.00000000       0.00000000       1.00000000    
   6.25000000E-02   0.00000000      0.500000000       0.00000000      0.500000000    
   6.25000000E-02   2.50000004E-02  0.716381490      0.111083537      0.724942744    
   6.25000000E-02   7.50000030E-02  0.919971943      0.251636297      0.953765810    
   6.25000000E-02  0.125000000       1.01073003      0.274275541       1.04728329    
   6.25000000E-02  0.175000012       1.04560137      0.246669218       1.07430351    
   6.25000000E-02  0.224999994       1.05378914      0.201842055       1.07294536    
   6.25000000E-02  0.275000006       1.05049396      0.155058801       1.06187606    
   6.25000000E-02  0.324999988       1.04348874      0.112396114       1.04952443    
   6.25000000E-02  0.375000000       1.03656030       7.53066540E-02   1.03929222    
   6.25000000E-02  0.425000012       1.03141320       4.30472530E-02   1.03231120    
   6.25000000E-02  0.475000024       1.02873182       1.39194634E-02   1.02882600    
   6.25000000E-02  0.524999976       1.02873802      -1.41380206E-02   1.02883518    
   6.25000000E-02  0.575000048       1.03143179      -4.32756320E-02   1.03233922    
   6.25000000E-02  0.625000000       1.03659141      -7.55550340E-02   1.03934133    
   6.25000000E-02  0.675000012       1.04353428     -0.112675220       1.04959965    
   6.25000000E-02  0.725000024       1.05055606     -0.155381113       1.06198466    
   6.25000000E-02  0.774999976       1.05386758     -0.202220500       1.07309365    
   6.25000000E-02  0.825000048       1.04569483     -0.247115433       1.07449698    
   6.25000000E-02  0.875000000       1.01083255     -0.274796516       1.04751873    
   6.25000000E-02  0.925000012      0.920069873     -0.252221197      0.954014719    
   6.25000000E-02  0.975000024      0.716450393     -0.111388892      0.725057721    
   6.25000000E-02   1.00000000      0.500000000       0.00000000      0.500000000    
  0.187500000       0.00000000       0.00000000       0.00000000       0.00000000    
  0.187500000       2.50000004E-02  0.338619500       3.52730714E-02  0.340451688    
  0.187500000       7.50000030E-02  0.729764700      0.112049848      0.738316834    
  0.187500000      0.125000000      0.947876215      0.180422381      0.964894593    
  0.187500000      0.175000012       1.06122017      0.216721088       1.08312333    
  0.187500000      0.224999994       1.11299586      0.221421480       1.13480711    
  0.187500000      0.275000006       1.13064098      0.202268839       1.14859116    
  0.187500000      0.324999988       1.13128376      0.167561218       1.14362562    
  0.187500000      0.375000000       1.12529540      0.123844624       1.13208973    
  0.187500000      0.425000012       1.11869121       7.55047500E-02   1.12123632    
  0.187500000      0.475000024       1.11470222       2.51399186E-02   1.11498570    
  0.187500000      0.524999976       1.11472070      -2.57765613E-02   1.11501873    
  0.187500000      0.575000048       1.11874616      -7.61508644E-02   1.12133491    
  0.187500000      0.625000000       1.12538505     -0.124508590       1.13225162    
  0.187500000      0.675000012       1.13140750     -0.168249190       1.14384913    
  0.187500000      0.725000024       1.13079715     -0.202983379       1.14887094    
  0.187500000      0.774999976       1.11317778     -0.222158715       1.13512957    
  0.187500000      0.825000048       1.06141829     -0.217470974       1.08346784    
  0.187500000      0.875000000      0.948073506     -0.181169361      0.965228319    
  0.187500000      0.925000012      0.729936004     -0.112767056      0.738595307    
  0.187500000      0.975000024      0.338728487      -3.56198326E-02  0.340596199    
  0.187500000       1.00000000       0.00000000       0.00000000       0.00000000    
  0.312500000       0.00000000       0.00000000       0.00000000       0.00000000    
  0.312500000       2.50000004E-02  0.212850809       1.02656391E-02  0.213098228    
  0.312500000       7.50000030E-02  0.558436334       4.24229354E-02  0.560045421    
  0.312500000      0.125000000      0.813185811       8.61924738E-02  0.817740977    
  0.312500000      0.175000012      0.987252831      0.123101085      0.994898021    
  0.312500000      0.224999994       1.09791410      0.143769026       1.10728717    
  0.312500000      0.275000006       1.16287231      0.145812467       1.17197835    
  0.312500000      0.324999988       1.19742358      0.130922854       1.20455968    
  0.312500000      0.375000000       1.21352828      0.102641806       1.21786129    
  0.312500000      0.425000012       1.21975970       6.50129169E-02   1.22149110    
  0.312500000      0.475000024       1.22157073       2.19549797E-02   1.22176802    
  0.312500000      0.524999976       1.22159481      -2.28730794E-02   1.22180891    
  0.312500000      0.575000048       1.21982956      -6.59295768E-02   1.22160995    
  0.312500000      0.625000000       1.21363842     -0.103554726       1.21804833    
  0.312500000      0.675000012       1.19756603     -0.131827086       1.20479989    
  0.312500000      0.725000024       1.16303587     -0.146700695       1.17225146    
  0.312500000      0.774999976       1.09808373     -0.144632086       1.10756779    
  0.312500000      0.825000048      0.987412333     -0.123928353      0.995158911    
  0.312500000      0.875000000      0.813319445      -8.69743824E-02  0.817956626    
  0.312500000      0.925000012      0.558532774      -4.31468934E-02  0.560196877    
  0.312500000      0.975000024      0.212904543      -1.06109772E-02  0.213168800    
  0.312500000       1.00000000       0.00000000       0.00000000       0.00000000    
  0.437500000       0.00000000       0.00000000       0.00000000       0.00000000    
  0.437500000       2.50000004E-02  0.168334454       2.77154450E-03  0.168357268    
  0.437500000       7.50000030E-02  0.466685772       1.52154109E-02  0.466933727    
  0.437500000      0.125000000      0.715137482       3.70993912E-02  0.716099143    
  0.437500000      0.175000012      0.910243988       5.99571988E-02  0.912216544    
  0.437500000      0.224999994       1.05521011       7.69227222E-02   1.05801010    
  0.437500000      0.275000006       1.15724039       8.39637518E-02   1.16028237    
  0.437500000      0.324999988       1.22511911       7.97781944E-02   1.22771394    
  0.437500000      0.375000000       1.26742446       6.51732981E-02   1.26909900    
  0.437500000      0.425000012       1.29135144       4.23582308E-02   1.29204595    
  0.437500000      0.475000024       1.30200696       1.43562090E-02   1.30208611    
  0.437500000      0.524999976       1.30202448      -1.54107492E-02   1.30211568    
  0.437500000      0.575000048       1.29139853      -4.34026495E-02   1.29212773    
  0.437500000      0.625000000       1.26749408      -6.61964193E-02   1.26922154    
  0.437500000      0.675000012       1.22520018      -8.07685554E-02   1.22785950    
  0.437500000      0.725000024       1.15731978      -8.49108249E-02   1.16043055    
  0.437500000      0.774999976       1.05527449      -7.78184831E-02   1.05813980    
  0.437500000      0.825000048      0.910283446      -6.07964657E-02  0.912311435    
  0.437500000      0.875000000      0.715150833      -3.78807448E-02  0.716153324    
  0.437500000      0.925000012      0.466683924      -1.59355365E-02  0.466955930    
  0.437500000      0.975000024      0.168339968      -3.11534852E-03  0.168368801    
  0.437500000       1.00000000       0.00000000       0.00000000       0.00000000    
  0.562500000       0.00000000       0.00000000       0.00000000       0.00000000    
  0.562500000       2.50000004E-02  0.149404988       3.07620503E-05  0.149404988    
  0.562500000       7.50000030E-02  0.420386434       3.77279869E-03  0.420403361    
  0.562500000      0.125000000      0.657203674       1.33161722E-02  0.657338560    
  0.562500000      0.175000012      0.855932117       2.50998270E-02  0.856300056    
  0.562500000      0.224999994       1.01577222       3.53820734E-02   1.01638830    
  0.562500000      0.275000006       1.13873863       4.12668698E-02   1.13948607    
  0.562500000      0.324999988       1.22877002       4.11429890E-02   1.22945869    
  0.562500000      0.375000000       1.29063582       3.47533859E-02   1.29110372    
  0.562500000      0.425000012       1.32889688       2.30163429E-02   1.32909620    
  0.562500000      0.475000024       1.34707642       7.72320479E-03   1.34709859    
  0.562500000      0.524999976       1.34707785      -8.80822539E-03   1.34710670    
  0.562500000      0.575000048       1.32889616      -2.40861401E-02   1.32911444    
  0.562500000      0.625000000       1.29062676      -3.57941017E-02   1.29112303    
  0.562500000      0.675000012       1.22874498      -4.21421081E-02   1.22946751    
  0.562500000      0.725000024       1.13868904      -4.22144607E-02   1.13947129    
  0.562500000      0.774999976       1.01569474      -3.62719372E-02   1.01634216    
  0.562500000      0.825000048      0.855829835      -2.59296168E-02  0.856222570    
  0.562500000      0.875000000      0.657091022      -1.40885897E-02  0.657242000    
  0.562500000      0.925000012      0.420292974      -4.48710239E-03  0.420316935    
  0.562500000      0.975000024      0.149372041      -3.72478069E-04  0.149372503    
  0.562500000       1.00000000       0.00000000       0.00000000       0.00000000    
  0.687500000       0.00000000       0.00000000       0.00000000       0.00000000    
  0.687500000       2.50000004E-02  0.140229374      -1.12984388E-03  0.140233934    
  0.687500000       7.50000030E-02  0.396088272      -1.38769555E-03  0.396090716    
  0.687500000      0.125000000      0.623921812       1.83530932E-03  0.623924494    
  0.687500000      0.175000012      0.821004987       7.07844691E-03  0.821035504    
  0.687500000      0.224999994      0.985910594       1.24590006E-02  0.985989273    
  0.687500000      0.275000006       1.11870241       1.62827708E-02   1.11882091    
  0.687500000      0.324999988       1.22074342       1.73822157E-02   1.22086716    
  0.687500000      0.375000000       1.29421425       1.53021598E-02   1.29430473    
  0.687500000      0.425000012       1.34149575       1.03191147E-02   1.34153545    
  0.687500000      0.475000024       1.36456895       3.32594104E-03   1.36457300    
  0.687500000      0.524999976       1.36455131      -4.37864289E-03   1.36455834    
  0.687500000      0.575000048       1.34143913      -1.13563500E-02   1.34148717    
  0.687500000      0.625000000       1.29411650      -1.63104590E-02   1.29421926    
  0.687500000      0.675000012       1.22060275      -1.83504000E-02   1.22074068    
  0.687500000      0.725000024       1.11851931      -1.72023904E-02   1.11865151    
  0.687500000      0.774999976      0.985692143      -1.33251604E-02  0.985782206    
  0.687500000      0.825000048      0.820767701      -7.89009221E-03  0.820805609    
  0.687500000      0.875000000      0.623694539      -2.59612221E-03  0.623699963    
  0.687500000      0.925000012      0.395914674       6.78443175E-04  0.395915270    
  0.687500000      0.975000024      0.140165031       7.89064972E-04  0.140167251    
  0.687500000       1.00000000       0.00000000       0.00000000       0.00000000    
  0.812500000       0.00000000       0.00000000       0.00000000       0.00000000    
  0.812500000       2.50000004E-02  0.135245144      -1.64598052E-03  0.135255173    
  0.812500000       7.50000030E-02  0.382245183      -3.76307033E-03  0.382263690    
  0.812500000      0.125000000      0.603760540      -3.65053816E-03  0.603771567    
  0.812500000      0.175000012      0.797975898      -1.87420077E-03  0.797978103    
  0.812500000      0.224999994      0.963604033       6.27030036E-04  0.963604271    
  0.812500000      0.275000006       1.10008216       2.92333215E-03   1.10008609    
  0.812500000      0.324999988       1.20758545       4.28573135E-03   1.20759308    
  0.812500000      0.375000000       1.28685617       4.32357006E-03   1.28686345    
  0.812500000      0.425000012       1.33889914       3.03985435E-03   1.33890259    
  0.812500000      0.475000024       1.36463046       7.97993038E-04   1.36463070    
  0.812500000      0.524999976       1.36459458      -1.78840524E-03   1.36459577    
  0.812500000      0.575000048       1.33879066      -4.01738752E-03   1.33879662    
  0.812500000      0.625000000       1.28667665      -5.27686672E-03   1.28668749    
  0.812500000      0.675000012       1.20733929      -5.20490482E-03   1.20735049    
  0.812500000      0.725000024       1.09977961      -3.80143477E-03   1.09978616    
  0.812500000      0.774999976      0.963262916      -1.46085653E-03  0.963264048    
  0.812500000      0.825000048      0.797623515       1.08432572E-03  0.797624290    
  0.812500000      0.875000000      0.603437304       2.90183048E-03  0.603444278    
  0.812500000      0.925000012      0.382005632       3.05907242E-03  0.382017881    
  0.812500000      0.975000024      0.135154396       1.30648271E-03  0.135160714    
  0.812500000       1.00000000       0.00000000       0.00000000       0.00000000    
  0.937500000       0.00000000       0.00000000       0.00000000       0.00000000    
  0.937500000       2.50000004E-02  0.132119685      -1.87319401E-03  0.132132962    
  0.937500000       7.50000030E-02  0.373310745      -4.83800424E-03  0.373342097    
  0.937500000      0.125000000      0.590155244      -6.20105211E-03  0.590187788    
  0.937500000      0.175000012      0.781367779      -6.14849478E-03  0.781391978    
  0.937500000      0.224999994      0.945877433      -5.16804028E-03  0.945891559    
  0.937500000      0.275000006       1.08295608      -3.77388438E-03   1.08296263    
  0.937500000      0.324999988       1.19227648      -2.41156481E-03   1.19227898    
  0.937500000      0.375000000       1.27386570      -1.37817115E-03   1.27386642    
  0.937500000      0.425000012       1.32797468      -7.76887406E-04   1.32797492    
  0.937500000      0.475000024       1.35490489      -5.23396418E-04   1.35490501    
  0.937500000      0.524999976       1.35485363      -3.98816133E-04   1.35485363    
  0.937500000      0.575000048       1.32782412      -1.35266484E-04   1.32782412    
  0.937500000      0.625000000       1.27361941       4.85129160E-04   1.27361953    
  0.937500000      0.675000012       1.19194508       1.54506171E-03   1.19194603    
  0.937500000      0.725000024       1.08255744       2.93901796E-03   1.08256137    
  0.937500000      0.774999976      0.945438027       4.36766166E-03  0.945448101    
  0.937500000      0.825000048      0.780924678       5.38236555E-03  0.780943215    
  0.937500000      0.875000000      0.589757323       5.46660414E-03  0.589782655    
  0.937500000      0.925000012      0.373020530       4.14046366E-03  0.373043507    
  0.937500000      0.975000024      0.132009387       1.53531018E-03  0.132018313    
  0.937500000       1.00000000       0.00000000       0.00000000       0.00000000    
   1.06250000       0.00000000       0.00000000       0.00000000       0.00000000    
   1.06250000       2.50000004E-02  0.129802048      -1.96923432E-03  0.129816979    
   1.06250000       7.50000030E-02  0.366613656      -5.30454610E-03  0.366652012    
   1.06250000      0.125000000      0.579670191      -7.33553059E-03  0.579716623    
   1.06250000      0.175000012      0.767971277      -8.09268653E-03  0.768013895    
   1.06250000      0.224999994      0.930602968      -7.85729475E-03  0.930636168    
   1.06250000      0.275000006       1.06681967      -6.93732034E-03   1.06684220    
   1.06250000      0.324999988       1.17609787      -5.62241534E-03   1.17611134    
   1.06250000      0.375000000       1.25813723      -4.14152723E-03   1.25814402    
   1.06250000      0.425000012       1.31281614      -2.63615395E-03   1.31281877    
   1.06250000      0.475000024       1.34011841      -1.15917460E-03   1.34011889    
   1.06250000      0.524999976       1.34005570       3.02222383E-04   1.34005570    
   1.06250000      0.575000048       1.31263387       1.78573397E-03   1.31263506    
   1.06250000      0.625000000       1.25784099       3.30469012E-03   1.25784528    
   1.06250000      0.675000012       1.17570317       4.80496045E-03   1.17571306    
   1.06250000      0.725000024       1.06635022       6.14252081E-03   1.06636798    
   1.06250000      0.774999976      0.930091739       7.08678784E-03  0.930118740    
   1.06250000      0.825000048      0.767462850       7.34638935E-03  0.767497957    
   1.06250000      0.875000000      0.579219937       6.61223289E-03  0.579257667    
   1.06250000      0.925000012      0.366288930       4.61147819E-03  0.366317958    
   1.06250000      0.975000024      0.129679471       1.63221196E-03  0.129689738    
   1.06250000       1.00000000       0.00000000       0.00000000       0.00000000    
   1.18750000       0.00000000       0.00000000       0.00000000       0.00000000    
   1.18750000       2.50000004E-02  0.127816319      -2.00583087E-03  0.127832055    
   1.18750000       7.50000030E-02  0.360887021      -5.49158175E-03  0.360928804    
   1.18750000      0.125000000      0.570593715      -7.80673325E-03  0.570647120    
   1.18750000      0.175000012      0.756083369      -8.92154872E-03  0.756136000    
   1.18750000      0.224999994      0.916538596      -9.02873464E-03  0.916583061    
   1.18750000      0.275000006       1.05123568      -8.33970588E-03   1.05126870    
   1.18750000      0.324999988       1.15958452      -7.06479046E-03   1.15960610    
   1.18750000      0.375000000       1.24114823      -5.39361499E-03   1.24115992    
   1.18750000      0.425000012       1.29563713      -3.48041626E-03   1.29564178    
   1.18750000      0.475000024       1.32288504      -1.44083053E-03   1.32288575    
   1.18750000      0.524999976       1.32281542       6.38813421E-04   1.32281554    
   1.18750000      0.575000048       1.29543340       2.68287584E-03   1.29543614    
   1.18750000      0.625000000       1.24081719       4.60496964E-03   1.24082577    
   1.18750000      0.675000012       1.15914631       6.28885534E-03   1.15916336    
   1.18750000      0.725000024       1.05071855       7.57888891E-03   1.05074596    
   1.18750000      0.774999976      0.915980875       8.28406587E-03  0.916018307    
   1.18750000      0.825000048      0.755533218       8.19271337E-03  0.755577624    
   1.18750000      0.875000000      0.570110679       7.09364098E-03  0.570154786    
   1.18750000      0.925000012      0.360541582       4.80323657E-03  0.360573560    
   1.18750000      0.975000024      0.127686679       1.66995917E-03  0.127697602    
   1.18750000       1.00000000       0.00000000       0.00000000       0.00000000    
   1.31250000       0.00000000       0.00000000       0.00000000       0.00000000    
   1.31250000       2.50000004E-02  0.125954360      -2.01801374E-03  0.125970528    
   1.31250000       7.50000030E-02  0.355551958      -5.55846188E-03  0.355595380    
   1.31250000      0.125000000      0.562112331      -7.98367243E-03  0.562169015    
   1.31250000      0.175000012      0.744858623      -9.24409740E-03  0.744915962    
   1.31250000      0.224999994      0.903030574      -9.49673355E-03  0.903080523    
   1.31250000      0.275000006       1.03593016      -8.91121291E-03   1.03596842    
   1.31250000      0.324999988       1.14295316      -7.66135752E-03   1.14297879    
   1.31250000      0.375000000       1.22361398      -5.91565017E-03   1.22362828    
   1.31250000      0.425000012       1.27755475      -3.83142452E-03   1.27756047    
   1.31250000      0.475000024       1.30454493      -1.55170541E-03   1.30454588    
   1.31250000      0.524999976       1.30447125       7.92872626E-04   1.30447149    
   1.31250000      0.575000048       1.27733684       3.07582435E-03   1.27734053    
   1.31250000      0.625000000       1.22326100       5.16553409E-03   1.22327197    
   1.31250000      0.675000012       1.14248812       6.91879820E-03   1.14250910    
   1.31250000      0.725000024       1.03538430       8.17765482E-03   1.03541660    
   1.31250000      0.774999976      0.902445316       8.77220836E-03  0.902487934    
   1.31250000      0.825000048      0.744284630       8.52868613E-03  0.744333506    
   1.31250000      0.875000000      0.561611474       7.27846567E-03  0.561658680    
   1.31250000      0.925000012      0.355195582       4.87368042E-03  0.355229020    
   1.31250000      0.975000024      0.125821099       1.68305996E-03  0.125832364    
   1.31250000       1.00000000       0.00000000       0.00000000       0.00000000    
   1.43750000       0.00000000       0.00000000       0.00000000       0.00000000    
   1.43750000       2.50000004E-02  0.124130212      -2.02085334E-03  0.124146663    
   1.43750000       7.50000030E-02  0.350356132      -5.57718100E-03  0.350400507    
   1.43750000      0.125000000      0.553859174      -8.03838577E-03  0.553917527    
   1.43750000      0.175000012      0.733901858      -9.35095549E-03  0.733961463    
   1.43750000      0.224999994      0.889758885      -9.65969823E-03  0.889811277    
   1.43750000      0.275000006       1.02075410      -9.11687687E-03   1.02079475    
   1.43750000      0.324999988       1.12628782      -7.88040459E-03   1.12631536    
   1.43750000      0.375000000       1.20586288      -6.10920787E-03   1.20587838    
   1.43750000      0.425000012       1.25909948      -3.96038126E-03   1.25910580    
   1.43750000      0.475000024       1.28574288      -1.58702733E-03   1.28574383    
   1.43750000      0.524999976       1.28566670       8.61411565E-04   1.28566694    
   1.43750000      0.575000048       1.25887334       3.23627167E-03   1.25887752    
   1.43750000      0.625000000       1.20549846       5.38739841E-03   1.20551050    
   1.43750000      0.675000012       1.12580860       7.16175884E-03   1.12583137    
   1.43750000      0.725000024       1.02019334       8.40205140E-03   1.02022791    
   1.43750000      0.774999976      0.889159858       8.94916430E-03  0.889204919    
   1.43750000      0.825000048      0.733316839       8.64529051E-03  0.733367801    
   1.43750000      0.875000000      0.553350806       7.33848661E-03  0.553399444    
   1.43750000      0.925000012      0.349995792       4.89416206E-03  0.350030005    
   1.43750000      0.975000024      0.123995975       1.68615708E-03  0.124007441    
   1.43750000       1.00000000       0.00000000       0.00000000       0.00000000    
   1.56250000       0.00000000       0.00000000       0.00000000       0.00000000    
   1.56250000       2.50000004E-02  0.122311354      -2.02028593E-03  0.122328043    
   1.56250000       7.50000030E-02  0.345197141      -5.57788089E-03  0.345242202    
   1.56250000      0.125000000      0.545678258      -8.04694090E-03  0.545737565    
   1.56250000      0.175000012      0.723039508      -9.37418081E-03  0.723100245    
   1.56250000      0.224999994      0.876577735      -9.70084313E-03  0.876631379    
   1.56250000      0.275000006       1.00563359      -9.17363353E-03   1.00567544    
   1.56250000      0.324999988       1.10961831      -7.94401392E-03   1.10964668    
   1.56250000      0.375000000       1.18803728      -6.16626348E-03   1.18805325    
   1.56250000      0.425000012       1.24050772      -3.99688073E-03   1.24051416    
   1.56250000      0.475000024       1.26676881      -1.59291318E-03   1.26676977    
   1.56250000      0.524999976       1.26669180       8.89594899E-04   1.26669216    
   1.56250000      0.575000048       1.24027884       3.29401484E-03   1.24028325    
   1.56250000      0.625000000       1.18766904       5.46348887E-03   1.18768156    
   1.56250000      0.675000012       1.10913455       7.24172406E-03   1.10915816    
   1.56250000      0.725000024       1.00506830       8.47225077E-03   1.00510395    
   1.56250000      0.774999976      0.875975549       9.00008157E-03  0.876021802    
   1.56250000      0.825000048      0.722453415       8.67445860E-03  0.722505450    
   1.56250000      0.875000000      0.545170426       7.35041033E-03  0.545219958    
   1.56250000      0.925000012      0.344838321       4.89655882E-03  0.344873071    
   1.56250000      0.975000024      0.122178189       1.68602588E-03  0.122189820    
   1.56250000       1.00000000       0.00000000       0.00000000       0.00000000    
   1.68750000       0.00000000       0.00000000       0.00000000       0.00000000    
   1.68750000       2.50000004E-02  0.120488808      -2.01964052E-03  0.120505735    
   1.68750000       7.50000030E-02  0.340040386      -5.57531416E-03  0.340086102    
   1.68750000      0.125000000      0.537511706      -8.04279651E-03  0.537571907    
   1.68750000      0.175000012      0.712202370      -9.37067159E-03  0.712264001    
   1.68750000      0.224999994      0.863425255      -9.70034115E-03  0.863479793    
   1.68750000      0.275000006      0.990534186      -9.17733647E-03  0.990576684    
   1.68750000      0.324999988       1.09295225      -7.95081258E-03   1.09298122    
   1.68750000      0.375000000       1.17019200      -6.17327681E-03   1.17020833    
   1.68750000      0.425000012       1.22187519      -4.00036853E-03   1.22188175    
   1.68750000      0.475000024       1.24774241      -1.58977101E-03   1.24774349    
   1.68750000      0.524999976       1.24766541       9.00167681E-04   1.24766576    
   1.68750000      0.575000048       1.22164679       3.31056677E-03   1.22165132    
   1.68750000      0.625000000       1.16982472       5.48269600E-03   1.16983759    
   1.68750000      0.675000012       1.09247017       7.25912442E-03   1.09249425    
   1.68750000      0.725000024      0.989971876       8.48460384E-03  0.990008235    
   1.68750000      0.774999976      0.862827182       9.00657475E-03  0.862874210    
   1.68750000      0.825000048      0.711621404       8.67582392E-03  0.711674273    
   1.68750000      0.875000000      0.537009120       7.34861707E-03  0.537059426    
   1.68750000      0.925000012      0.339685798       4.89432365E-03  0.339721054    
   1.68750000      0.975000024      0.120357513       1.68514135E-03  0.120369308    
   1.68750000       1.00000000       0.00000000       0.00000000       0.00000000    
   1.81250000       0.00000000       0.00000000       0.00000000       0.00000000    
   1.81250000       2.50000004E-02  0.118661568      -2.01872387E-03  0.118678741    
   1.81250000       7.50000030E-02  0.334877282      -5.57189994E-03  0.334923625    
   1.81250000      0.125000000      0.529342115      -8.03625397E-03  0.529403090    
   1.81250000      0.175000012      0.701367140      -9.36167501E-03  0.701429605    
   1.81250000      0.224999994      0.850277722      -9.69025586E-03  0.850332916    
   1.81250000      0.275000006      0.975440621      -9.16744955E-03  0.975483716    
   1.81250000      0.324999988       1.07628942      -7.94194359E-03   1.07631874    
   1.81250000      0.375000000       1.15234566      -6.16578292E-03   1.15236211    
   1.81250000      0.425000012       1.20323634      -3.99424601E-03   1.20324302    
   1.81250000      0.475000024       1.22870684      -1.58492255E-03   1.22870779    
   1.81250000      0.524999976       1.22863090       9.03659849E-04   1.22863126    
   1.81250000      0.575000048       1.20301008       3.31235467E-03   1.20301461    
   1.81250000      0.625000000       1.15198219       5.48209343E-03   1.15199518    
   1.81250000      0.675000012       1.07581329       7.25573488E-03   1.07583785    
   1.81250000      0.725000024      0.974885821       8.47894978E-03  0.974922717    
   1.81250000      0.774999976      0.849687934       8.99978355E-03  0.849735618    