 TITLE= "TESTPLOT" 
 VARIABLES="x","y","fx","fy","magf" 
 ZONE T="1", I=          81 , J=          21
   0.00000000       0.00000000       1.00000000       0.00000000       1.00000000    
   0.00000000       2.50000004E-02   1.00000000       0.00000000       1.00000000    
   0.00000000       7.50000030E-02   1.00000000       0.00000000       1.00000000    
   0.00000000      0.125000000       1.00000000       0.00000000       1.00000000    
   0.00000000      0.175000012       1.00000000       0.00000000       1.00000000    
   0.00000000      0.224999994       1.00000000       0.00000000       1.00000000    
   0.00000000      0.275000006       1.00000000       0.00000000       1.00000000    
   0.00000000      0.324999988       1.00000000       0.00000000       1.00000000    
   0.00000000      0.375000000       1.00000000       0.00000000       1.00000000    
   0.00000000      0.425000012       1.00000000       0.00000000       1.00000000    
   0.00000000      0.475000024       1.00000000       0.00000000       1.00000000    
   0.00000000      0.524999976       1.00000000       0.00000000       1.00000000    
   0.00000000      0.575000048       1.00000000       0.00000000       1.00000000    
   0.00000000      0.625000000       1.00000000       0.00000000       1.00000000    
   0.00000000      0.675000012       1.00000000       0.00000000       1.00000000    
   0.00000000      0.725000024       1.00000000       0.00000000       1.00000000    
   0.00000000      0.774999976       1.00000000       0.00000000       1.00000000    
   0.00000000      0.825000048       1.00000000       0.00000000       1.00000000    
   0.00000000      0.875000000       1.00000000       0.00000000       1.00000000    
   0.00000000      0.925000012       1.00000000       0.00000000       1.00000000    
   0.00000000      0.975000024       1.00000000       0.00000000       1.00000000    
   0.00000000       1.00000000       1.00000000       0.00000000       1.00000000    
   6.25000000E-02   0.00000000      0.500000000       0.00000000      0.500000000    
   6.25000000E-02   2.50000004E-02  0.716428459      0.111087732      0.724989772    
   6.25000000E-02   7.50000030E-02  0.920040727      0.251641631      0.953833580    
   6.25000000E-02  0.125000000       1.01079655      0.274275601       1.04734755    
   6.25000000E-02  0.175000012       1.04566169      0.246667042       1.07436168    
   6.25000000E-02  0.224999994       1.05384684      0.201840758       1.07300174    
   6.25000000E-02  0.275000006       1.05055189      0.155059248       1.06193340    
   6.25000000E-02  0.324999988       1.04354763      0.112397894       1.04958320    
   6.25000000E-02  0.375000000       1.03661966       7.53096044E-02   1.03935158    
   6.25000000E-02  0.425000012       1.03147340       4.30510417E-02   1.03237140    
   6.25000000E-02  0.475000024       1.02879214       1.39234830E-02   1.02888632    
   6.25000000E-02  0.524999976       1.02879810      -1.41340587E-02   1.02889526    
   6.25000000E-02  0.575000048       1.03149152      -4.32715565E-02   1.03239870    
   6.25000000E-02  0.625000000       1.03665078      -7.55500197E-02   1.03940010    
   6.25000000E-02  0.675000012       1.04359329     -0.112669095       1.04965770    
   6.25000000E-02  0.725000024       1.05061400     -0.155373424       1.06204081    
   6.25000000E-02  0.774999976       1.05392587     -0.202210501       1.07314909    
   6.25000000E-02  0.825000048       1.04575551     -0.247104213       1.07455349    
   6.25000000E-02  0.875000000       1.01089883     -0.274787605       1.04758036    
   6.25000000E-02  0.925000012      0.920138896     -0.252218246      0.954080522    
   6.25000000E-02  0.975000024      0.716497838     -0.111389205      0.725104630    
   6.25000000E-02   1.00000000      0.500000000       0.00000000      0.500000000    
  0.187500000       0.00000000       0.00000000       0.00000000       0.00000000    
  0.187500000       2.50000004E-02  0.338763952       3.52755636E-02  0.340595633    
  0.187500000       7.50000030E-02  0.729977906      0.112049088      0.738527417    
  0.187500000      0.125000000      0.948079705      0.180412218      0.965092599    
  0.187500000      0.175000012       1.06140304      0.216706619       1.08329964    
  0.187500000      0.224999994       1.11316788      0.221407861       1.13497329    
  0.187500000      0.275000006       1.13081193      0.202258542       1.14875770    
  0.187500000      0.324999988       1.13145673      0.167554706       1.14379585    
  0.187500000      0.375000000       1.12547076      0.123841822       1.13226378    
  0.187500000      0.425000012       1.11886871       7.55050331E-02   1.12141347    
  0.187500000      0.475000024       1.11488008       2.51425467E-02   1.11516356    
  0.187500000      0.524999976       1.11489820      -2.57720593E-02   1.11519611    
  0.187500000      0.575000048       1.11892295      -7.61444867E-02   1.12151086    
  0.187500000      0.625000000       1.12556052     -0.124499708       1.13242507    
  0.187500000      0.675000012       1.13158095     -0.168236583       1.14401877    
  0.187500000      0.725000024       1.13096833     -0.202966005       1.14903629    
  0.187500000      0.774999976       1.11335087     -0.222137153       1.13529515    
  0.187500000      0.825000048       1.06160152     -0.217448324       1.08364272    
  0.187500000      0.875000000      0.948276460     -0.181151584      0.965424299    
  0.187500000      0.925000012      0.730148673     -0.112759650      0.738804281    
  0.187500000      0.975000024      0.338872731      -3.56191844E-02  0.340739578    
  0.187500000       1.00000000       0.00000000       0.00000000       0.00000000    
  0.312500000       0.00000000       0.00000000       0.00000000       0.00000000    
  0.312500000       2.50000004E-02  0.213096201       1.02679981E-02  0.213343441    
  0.312500000       7.50000030E-02  0.558800876       4.24217135E-02  0.560408831    
  0.312500000      0.125000000      0.813530922       8.61808956E-02  0.818082988    
  0.312500000      0.175000012      0.987560272      0.123084165      0.995200992    
  0.312500000      0.224999994       1.09820020      0.143752292       1.10756874    
  0.312500000      0.275000006       1.16315341      0.145799100       1.17225564    
  0.312500000      0.324999988       1.19770741      0.130913988       1.20484090    
  0.312500000      0.375000000       1.21381664      0.102637008       1.21814835    
  0.312500000      0.425000012       1.22005165       6.50114417E-02   1.22178245    
  0.312500000      0.475000024       1.22186375       2.19564475E-02   1.22206104    
  0.312500000      0.524999976       1.22188759      -2.28690021E-02   1.22210157    
  0.312500000      0.575000048       1.22012138      -6.59226850E-02   1.22190094    
  0.312500000      0.625000000       1.21392703     -0.103544407       1.21833503    
  0.312500000      0.675000012       1.19785047     -0.131812900       1.20508099    
  0.312500000      0.725000024       1.16331780     -0.146682158       1.17252886    
  0.312500000      0.774999976       1.09837103     -0.144609794       1.10784972    
  0.312500000      0.825000048      0.987720728     -0.123905152      0.995462060    
  0.312500000      0.875000000      0.813665390      -8.69559273E-02  0.818298638    
  0.312500000      0.925000012      0.558897018      -4.31390218E-02  0.560559452    
  0.312500000      0.975000024      0.213148803      -1.06102386E-02  0.213412717    
  0.312500000       1.00000000       0.00000000       0.00000000       0.00000000    
  0.437500000       0.00000000       0.00000000       0.00000000       0.00000000    
  0.437500000       2.50000004E-02  0.168680415       2.77423998E-03  0.168703228    
  0.437500000       7.50000030E-02  0.467202157       1.52146202E-02  0.467449844    
  0.437500000      0.125000000      0.715625525       3.70879322E-02  0.716585934    
  0.437500000      0.175000012      0.910676718       5.99402562E-02  0.912647247    
  0.437500000      0.224999994       1.05561113       7.69057050E-02   1.05840886    
  0.437500000      0.275000006       1.15763259       8.39495435E-02   1.16067255    
  0.437500000      0.324999988       1.22551429       7.97680020E-02   1.22810757    
  0.437500000      0.375000000       1.26782537       6.51673153E-02   1.26949906    
  0.437500000      0.425000012       1.29175758       4.23559397E-02   1.29245174    
  0.437500000      0.475000024       1.30241513       1.43570034E-02   1.30249429    
  0.437500000      0.524999976       1.30243182      -1.54066719E-02   1.30252290    
  0.437500000      0.575000048       1.29180455      -4.33949009E-02   1.29253328    
  0.437500000      0.625000000       1.26789522      -6.61847144E-02   1.26962149    
  0.437500000      0.675000012       1.22559607      -8.07528719E-02   1.22825348    
  0.437500000      0.725000024       1.15771341      -8.48913267E-02   1.16082168    
  0.437500000      0.774999976       1.05567753      -7.77955279E-02   1.05854011    
  0.437500000      0.825000048      0.910718441      -6.07726797E-02  0.912743866    
  0.437500000      0.875000000      0.715641022      -3.78621370E-02  0.716641903    
  0.437500000      0.925000012      0.467201352      -1.59274023E-02  0.467472762    
  0.437500000      0.975000024      0.168686599      -3.11427820E-03  0.168715343    
  0.437500000       1.00000000       0.00000000       0.00000000       0.00000000    
  0.562500000       0.00000000       0.00000000       0.00000000       0.00000000    
  0.562500000       2.50000004E-02  0.149851531       3.31219708E-05  0.149851546    
  0.562500000       7.50000030E-02  0.421054184       3.77146993E-03  0.421071082    
  0.562500000      0.125000000      0.657835126       1.33041125E-02  0.657969654    
  0.562500000      0.175000012      0.856491268       2.50821002E-02  0.856858492    
  0.562500000      0.224999994       1.01628864       3.53642255E-02   1.01690376    
  0.562500000      0.275000006       1.13924241       4.12517413E-02   1.13998902    
  0.562500000      0.324999988       1.22927666       4.11315635E-02   1.22996461    
  0.562500000      0.375000000       1.29114842       3.47456411E-02   1.29161584    
  0.562500000      0.425000012       1.32941532       2.30125804E-02   1.32961440    
  0.562500000      0.475000024       1.34759712       7.72384042E-03   1.34761918    
  0.562500000      0.524999976       1.34759796      -8.80349707E-03   1.34762669    
  0.562500000      0.575000048       1.32941437      -2.40774937E-02   1.32963240    
  0.562500000      0.625000000       1.29114008      -3.57813574E-02   1.29163575    
  0.562500000      0.675000012       1.22925210      -4.21253592E-02   1.22997367    
  0.562500000      0.725000024       1.13919425      -4.21935357E-02   1.13997543    
  0.562500000      0.774999976       1.01621294      -3.62476334E-02   1.01685917    
  0.562500000      0.825000048      0.856390834      -2.59053838E-02  0.856782556    
  0.562500000      0.875000000      0.657724142      -1.40701393E-02  0.657874644    
  0.562500000      0.925000012      0.420961529      -4.47955355E-03  0.420985371    
  0.562500000      0.975000024      0.149819404      -3.71889269E-04  0.149819866    
  0.562500000       1.00000000       0.00000000       0.00000000       0.00000000    
  0.687500000       0.00000000       0.00000000       0.00000000       0.00000000    
  0.687500000       2.50000004E-02  0.140775621      -1.12718320E-03  0.140780136    
  0.687500000       7.50000030E-02  0.396906078      -1.38845260E-03  0.396908492    
  0.687500000      0.125000000      0.624696374       1.82375766E-03  0.624699056    
  0.687500000      0.175000012      0.821690440       7.06087891E-03  0.821720779    
  0.687500000      0.224999994      0.986542463       1.24409329E-02  0.986620903    
  0.687500000      0.275000006       1.11931729       1.62671059E-02   1.11943543    
  0.687500000      0.324999988       1.22135997       1.73700433E-02   1.22148347    
  0.687500000      0.375000000       1.29483712       1.52936988E-02   1.29492748    
  0.687500000      0.425000012       1.34212351       1.03149684E-02   1.34216321    
  0.687500000      0.475000024       1.36519933       3.32661276E-03   1.36520338    
  0.687500000      0.524999976       1.36518097      -4.37347218E-03   1.36518800    
  0.687500000      0.575000048       1.34206653      -1.13469493E-02   1.34211445    
  0.687500000      0.625000000       1.29473996      -1.62970256E-02   1.29484248    
  0.687500000      0.675000012       1.22121954      -1.83327924E-02   1.22135711    
  0.687500000      0.725000024       1.11913443      -1.71806067E-02   1.11926627    
  0.687500000      0.774999976      0.986324668      -1.33004580E-02  0.986414373    
  0.687500000      0.825000048      0.821453929      -7.86598306E-03  0.821491599    
  0.687500000      0.875000000      0.624469817      -2.57811346E-03  0.624475121    
  0.687500000      0.925000012      0.396732926       6.85838459E-04  0.396733522    
  0.687500000      0.975000024      0.140710890       7.89738202E-04  0.140713111    
  0.687500000       1.00000000       0.00000000       0.00000000       0.00000000    
  0.812500000       0.00000000       0.00000000       0.00000000       0.00000000    
  0.812500000       2.50000004E-02  0.135889664      -1.64351112E-03  0.135899603    
  0.812500000       7.50000030E-02  0.383212328      -3.76409665E-03  0.383230805    
  0.812500000      0.125000000      0.604677141      -3.66222253E-03  0.604688227    
  0.812500000      0.175000012      0.798786402      -1.89212419E-03  0.798788667    
  0.812500000      0.224999994      0.964350343       6.08481816E-04  0.964350522    
  0.812500000      0.275000006       1.10080695       2.90758954E-03   1.10081077    
  0.812500000      0.324999988       1.20831060       4.27368283E-03   1.20831811    
  0.812500000      0.375000000       1.28758788       4.31519514E-03   1.28759515    
  0.812500000      0.425000012       1.33963442       3.03548505E-03   1.33963788    
  0.812500000      0.475000024       1.36536789       7.98115914E-04   1.36536813    
  0.812500000      0.524999976       1.36533129      -1.78368017E-03   1.36533248    
  0.812500000      0.575000048       1.33952534      -4.00809711E-03   1.33953130    
  0.812500000      0.625000000       1.28740847      -5.26299188E-03   1.28741920    
  0.812500000      0.675000012       1.20806515      -5.18674962E-03   1.20807624    
  0.812500000      0.725000024       1.10050511      -3.77924205E-03   1.10051167    
  0.812500000      0.774999976      0.964009881      -1.43557682E-03  0.964010954    
  0.812500000      0.825000048      0.798435092       1.10919017E-03  0.798435867    
  0.812500000      0.875000000      0.604354858       2.92049348E-03  0.604361892    
  0.812500000      0.925000012      0.382973462       3.06681264E-03  0.382985741    
  0.812500000      0.975000024      0.135799348       1.30725559E-03  0.135805637    
  0.812500000       1.00000000       0.00000000       0.00000000       0.00000000    
  0.937500000       0.00000000       0.00000000       0.00000000       0.00000000    
  0.937500000       2.50000004E-02  0.132861689      -1.87096954E-03  0.132874861    
  0.937500000       7.50000030E-02  0.374425530      -4.83948411E-03  0.374456793    
  0.937500000      0.125000000      0.591212034      -6.21290971E-03  0.591244698    
  0.937500000      0.175000012      0.782301784      -6.16623973E-03  0.782326043    
  0.937500000      0.224999994      0.946736097      -5.18618617E-03  0.946750283    
  0.937500000      0.275000006       1.08378887      -3.78906401E-03   1.08379543    
  0.937500000      0.324999988       1.19310832      -2.42286408E-03   1.19311070    
  0.937500000      0.375000000       1.27470338      -1.38516317E-03   1.27470410    
  0.937500000      0.425000012       1.32881618      -7.79554364E-04   1.32881641    
  0.937500000      0.475000024       1.35574770      -5.21930982E-04   1.35574782    
  0.937500000      0.524999976       1.35569668      -3.93066148E-04   1.35569668    
  0.937500000      0.575000048       1.32866502      -1.25418097E-04   1.32866502    
  0.937500000      0.625000000       1.27445745       4.99076268E-04   1.27445757    
  0.937500000      0.675000012       1.19277847       1.56303484E-03   1.19277942    
  0.937500000      0.725000024       1.08339190       2.96070753E-03   1.08339596    
  0.937500000      0.774999976      0.946298778       4.39179922E-03  0.946308970    
  0.937500000      0.825000048      0.781861126       5.40586282E-03  0.781879842    
  0.937500000      0.875000000      0.590816379       5.48439473E-03  0.590841830    
  0.937500000      0.925000012      0.374137104       4.14776988E-03  0.374160111    
  0.937500000      0.975000024      0.132752657       1.53593859E-03  0.132761553    
  0.937500000       1.00000000       0.00000000       0.00000000       0.00000000    
   1.06250000       0.00000000       0.00000000       0.00000000       0.00000000    
   1.06250000       2.50000004E-02  0.130640119      -1.96674466E-03  0.130654916    
   1.06250000       7.50000030E-02  0.367874265      -5.30569442E-03  0.367912531    
   1.06250000      0.125000000      0.580865860      -7.34734070E-03  0.580912292    
   1.06250000      0.175000012      0.769027472      -8.11038353E-03  0.769070268    
   1.06250000      0.224999994      0.931573153      -7.87561387E-03  0.931606472    
   1.06250000      0.275000006       1.06775880      -6.95339870E-03   1.06778145    
   1.06250000      0.324999988       1.17703426      -5.63478563E-03   1.17704773    
   1.06250000      0.375000000       1.25907826      -4.14911052E-03   1.25908506    
   1.06250000      0.425000012       1.31376100      -2.63892324E-03   1.31376362    
   1.06250000      0.475000024       1.34106350      -1.15740602E-03   1.34106398    
   1.06250000      0.524999976       1.34100175       3.08788440E-04   1.34100175    
   1.06250000      0.575000048       1.31357789       1.79729576E-03   1.31357908    
   1.06250000      0.625000000       1.25878286       3.32089816E-03   1.25878727    
   1.06250000      0.675000012       1.17664146       4.82518226E-03   1.17665136    
   1.06250000      0.725000024       1.06729174       6.16605161E-03   1.06730950    
   1.06250000      0.774999976      0.931065261       7.11209048E-03  0.931092441    
   1.06250000      0.825000048      0.768522620       7.37057254E-03  0.768557966    
   1.06250000      0.875000000      0.580418766       6.63048681E-03  0.580456614    
   1.06250000      0.925000012      0.367552012       4.61900281E-03  0.367581040    
   1.06250000      0.975000024      0.130518988       1.63284282E-03  0.130529195    
   1.06250000       1.00000000       0.00000000       0.00000000       0.00000000    
   1.18750000       0.00000000       0.00000000       0.00000000       0.00000000    
   1.18750000       2.50000004E-02  0.128749713      -2.00381968E-03  0.128765315    
   1.18750000       7.50000030E-02  0.362292767      -5.49348956E-03  0.362334400    
   1.18750000      0.125000000      0.571927667      -7.81902298E-03  0.571981132    
   1.18750000      0.175000012      0.757260919      -8.93977657E-03  0.757313728    
   1.18750000      0.224999994      0.917619467      -9.04742628E-03  0.917664051    
   1.18750000      0.275000006       1.05228043      -8.35585780E-03   1.05231357    
   1.18750000      0.324999988       1.16062403      -7.07724178E-03   1.16064560    
   1.18750000      0.375000000       1.24219108      -5.40156569E-03   1.24220288    
   1.18750000      0.425000012       1.29668307      -3.48341558E-03   1.29668772    
   1.18750000      0.475000024       1.32393098      -1.43876707E-03   1.32393169    
   1.18750000      0.524999976       1.32386184       6.45855558E-04   1.32386196    
   1.18750000      0.575000048       1.29647839       2.69507011E-03   1.29648125    
   1.18750000      0.625000000       1.24186134       4.62211529E-03   1.24186993    
   1.18750000      0.675000012       1.16018796       6.31014816E-03   1.16020513    
   1.18750000      0.725000024       1.05176592       7.60329422E-03   1.05179346    
   1.18750000      0.774999976      0.917064846       8.31032917E-03  0.917102516    
   1.18750000      0.825000048      0.756714344       8.21805187E-03  0.756758928    
   1.18750000      0.875000000      0.571447611       7.11254403E-03  0.571491838    
   1.18750000      0.925000012      0.361949086       4.81094653E-03  0.361981034    
   1.18750000      0.975000024      0.128620714       1.67070120E-03  0.128631562    
   1.18750000       1.00000000       0.00000000       0.00000000       0.00000000    
   1.31250000       0.00000000       0.00000000       0.00000000       0.00000000    
   1.31250000       2.50000004E-02  0.126981407      -2.01619975E-03  0.126997411    
   1.31250000       7.50000030E-02  0.357100189      -5.56070078E-03  0.357143492    
   1.31250000      0.125000000      0.563582540      -7.99630675E-03  0.563639283    
   1.31250000      0.175000012      0.746156275      -9.26274993E-03  0.746213734    
   1.31250000      0.224999994      0.904220462      -9.51631553E-03  0.904270530    
   1.31250000      0.275000006       1.03707910      -8.92844517E-03   1.03711748    
   1.31250000      0.324999988       1.14409471      -7.67452968E-03   1.14412045    
   1.31250000      0.375000000       1.22475755      -5.92411496E-03   1.22477186    
   1.31250000      0.425000012       1.27870071      -3.83476820E-03   1.27870643    
   1.31250000      0.475000024       1.30569100      -1.54943415E-03   1.30569196    
   1.31250000      0.524999976       1.30561709       8.00749403E-04   1.30561733    
   1.31250000      0.575000048       1.27848291       3.08876112E-03   1.27848661    
   1.31250000      0.625000000       1.22440672       5.18312445E-03   1.22441769    
   1.31250000      0.675000012       1.14363217       6.94036577E-03   1.14365327    
   1.31250000      0.725000024       1.03653646       8.20241310E-03   1.03656888    
   1.31250000      0.774999976      0.903638780       8.79890099E-03  0.903681636    
   1.31250000      0.825000048      0.745586038       8.55419971E-03  0.745635152    
   1.31250000      0.875000000      0.563084602       7.29726721E-03  0.563131869    
   1.31250000      0.925000012      0.356745392       4.88121994E-03  0.356778771    
   1.31250000      0.975000024      0.126848191       1.68373797E-03  0.126859367    
   1.31250000       1.00000000       0.00000000       0.00000000       0.00000000    
   1.43750000       0.00000000       0.00000000       0.00000000       0.00000000    
   1.43750000       2.50000004E-02  0.125248611      -2.01888569E-03  0.125264883    
   1.43750000       7.50000030E-02  0.352043986      -5.57902642E-03  0.352088183    
   1.43750000      0.125000000      0.555462956      -8.05090927E-03  0.555521309    
   1.43750000      0.175000012      0.735317469      -9.36960895E-03  0.735377192    
   1.43750000      0.224999994      0.891056001      -9.67886671E-03  0.891108572    
   1.43750000      0.275000006       1.02200508      -9.13358293E-03   1.02204585    
   1.43750000      0.324999988       1.12752950      -7.89321493E-03   1.12755716    
   1.43750000      0.375000000       1.20710564      -6.11736905E-03   1.20712113    
   1.43750000      0.425000012       1.26034367      -3.96336988E-03   1.26034987    
   1.43750000      0.475000024       1.28698719      -1.58481707E-03   1.28698814    
   1.43750000      0.524999976       1.28691077       8.68635543E-04   1.28691101    
   1.43750000      0.575000048       1.26011860       3.24849831E-03   1.26012278    
   1.43750000      0.625000000       1.20674372       5.40459808E-03   1.20675588    
   1.43750000      0.675000012       1.12705386       7.18339998E-03   1.12707675    
   1.43750000      0.725000024       1.02144933       8.42727907E-03   1.02148414    
   1.43750000      0.774999976      0.890462339       8.97606183E-03  0.890507579    
   1.43750000      0.825000048      0.734737635       8.67056195E-03  0.734788775    
   1.43750000      0.875000000      0.554958642       7.35708605E-03  0.555007398    
   1.43750000      0.925000012      0.351686060       4.90168575E-03  0.351720214    
   1.43750000      0.975000024      0.125114799       1.68687245E-03  0.125126168    
   1.43750000       1.00000000       0.00000000       0.00000000       0.00000000    
   1.56250000       0.00000000       0.00000000       0.00000000       0.00000000    
   1.56250000       2.50000004E-02  0.123519331      -2.01851572E-03  0.123535827    
   1.56250000       7.50000030E-02  0.347022533      -5.58017939E-03  0.347067386    
   1.56250000      0.125000000      0.547413528      -8.05961154E-03  0.547472894    
   1.56250000      0.175000012      0.724570990      -9.39274859E-03  0.724631846    
   1.56250000      0.224999994      0.877979457      -9.71993059E-03  0.878033280    
   1.56250000      0.275000006       1.00698388      -9.19006206E-03   1.00702572    
   1.56250000      0.324999988       1.11095691      -7.95635767E-03   1.11098540    
   1.56250000      0.375000000       1.18937600      -6.17396552E-03   1.18939209    
   1.56250000      0.425000012       1.24184704      -3.99964955E-03   1.24185348    
   1.56250000      0.475000024       1.26810861      -1.59057765E-03   1.26810956    
   1.56250000      0.524999976       1.26803136       8.96939368E-04   1.26803172    
   1.56250000      0.575000048       1.24161959       3.30633065E-03   1.24162400    
   1.56250000      0.625000000       1.18901086       5.48051391E-03   1.18902349    
   1.56250000      0.675000012       1.11047816       7.26277474E-03   1.11050189    
   1.56250000      0.725000024       1.00642550       8.49675760E-03   1.00646138    
   1.56250000      0.774999976      0.877384424       9.02678818E-03  0.877430856    
   1.56250000      0.825000048      0.723991334       8.70002806E-03  0.724043608    
   1.56250000      0.875000000      0.546910644       7.36916065E-03  0.546960294    
   1.56250000      0.925000012      0.346666664       4.90401592E-03  0.346701354    
   1.56250000      0.975000024      0.123386845       1.68666861E-03  0.123398371    
   1.56250000       1.00000000       0.00000000       0.00000000       0.00000000    
   1.68750000       0.00000000       0.00000000       0.00000000       0.00000000    
   1.68750000       2.50000004E-02  0.121783823      -2.01749662E-03  0.121800534    
   1.68750000       7.50000030E-02  0.341999173      -5.57667017E-03  0.342044622    
   1.68750000      0.125000000      0.539374352      -8.05423874E-03  0.539434493    
   1.68750000      0.175000012      0.713846207      -9.38804355E-03  0.713907957    
   1.68750000      0.224999994      0.864928484      -9.71846003E-03  0.864983082    
   1.68750000      0.275000006      0.991981030      -9.19289049E-03  0.992023647    
   1.68750000      0.324999988       1.09438539      -7.96229858E-03   1.09441435    
   1.68750000      0.375000000       1.17162442      -6.18037069E-03   1.17164075    
   1.68750000      0.425000012       1.22330737      -4.00282396E-03   1.22331393    
   1.68750000      0.475000024       1.24917495      -1.58713502E-03   1.24917591    
   1.68750000      0.524999976       1.24909806       9.07707145E-04   1.24909842    
   1.68750000      0.575000048       1.22308111       3.32263485E-03   1.22308564    
   1.68750000      0.625000000       1.17126155       5.49895130E-03   1.17127442    
   1.68750000      0.675000012       1.09391022       7.27917114E-03   1.09393442    
   1.68750000      0.725000024      0.991427362       8.50768201E-03  0.991463840    
   1.68750000      0.774999976      0.864339232       9.03102756E-03  0.864386380    
   1.68750000      0.825000048      0.713273525       8.69894028E-03  0.713326573    
   1.68750000      0.875000000      0.538878500       7.36559974E-03  0.538928807    
   1.68750000      0.925000012      0.341648817       4.90103848E-03  0.341683984    
   1.68750000      0.975000024      0.121653721       1.68567721E-03  0.121665396    
   1.68750000       1.00000000       0.00000000       0.00000000       0.00000000    
   1.81250000       0.00000000       0.00000000       0.00000000       0.00000000    
   1.81250000       2.50000004E-02  0.120041206      -2.01637601E-03  0.120058142    
   1.81250000       7.50000030E-02  0.336965203      -5.57242148E-03  0.337011278    
   1.81250000      0.125000000      0.531327844      -8.04616138E-03  0.531388760    
   1.81250000      0.175000012      0.703119397      -9.37730446E-03  0.703181922    
   1.81250000      0.224999994      0.851880193      -9.70696658E-03  0.851935506    
   1.81250000      0.275000006      0.976982474      -9.18202382E-03  0.977025628    
   1.81250000      0.324999988       1.07781601      -7.95275345E-03   1.07784534    
   1.81250000      0.375000000       1.15387058      -6.17233291E-03   1.15388715    
   1.81250000      0.425000012       1.20476079      -3.99636896E-03   1.20476747    
   1.81250000      0.475000024       1.23023164      -1.58238201E-03   1.23023272    
   1.81250000      0.524999976       1.23015594       9.10665549E-04   1.23015630    
   1.81250000      0.575000048       1.20453787       3.32351029E-03   1.20454252    
   1.81250000      0.625000000       1.15351295       5.49750589E-03   1.15352607    
   1.81250000      0.675000012       1.07734823       7.27505749E-03   1.07737279    
   1.81250000      0.725000024      0.976437688       8.50083772E-03  0.976474643    
   1.81250000      0.774999976      0.851300955       9.02244076E-03  0.851348758    