 TITLE= "TESTPLOT" 
 VARIABLES="x","y","fx","fy","magf" 
 ZONE T="1", I=          81 , J=          21
   0.00000000       0.00000000       1.00000000       0.00000000       1.00000000    
   0.00000000       2.50000004E-02   1.00000000       0.00000000       1.00000000    
   0.00000000       7.50000030E-02   1.00000000       0.00000000       1.00000000    
   0.00000000      0.125000000       1.00000000       0.00000000       1.00000000    
   0.00000000      0.175000012       1.00000000       0.00000000       1.00000000    
   0.00000000      0.224999994       1.00000000       0.00000000       1.00000000    
   0.00000000      0.275000006       1.00000000       0.00000000       1.00000000    
   0.00000000      0.324999988       1.00000000       0.00000000       1.00000000    
   0.00000000      0.375000000       1.00000000       0.00000000       1.00000000    
   0.00000000      0.425000012       1.00000000       0.00000000       1.00000000    
   0.00000000      0.475000024       1.00000000       0.00000000       1.00000000    
   0.00000000      0.524999976       1.00000000       0.00000000       1.00000000    
   0.00000000      0.575000048       1.00000000       0.00000000       1.00000000    
   0.00000000      0.625000000       1.00000000       0.00000000       1.00000000    
   0.00000000      0.675000012       1.00000000       0.00000000       1.00000000    
   0.00000000      0.725000024       1.00000000       0.00000000       1.00000000    
   0.00000000      0.774999976       1.00000000       0.00000000       1.00000000    
   0.00000000      0.825000048       1.00000000       0.00000000       1.00000000    
   0.00000000      0.875000000       1.00000000       0.00000000       1.00000000    
   0.00000000      0.925000012       1.00000000       0.00000000       1.00000000    
   0.00000000      0.975000024       1.00000000       0.00000000       1.00000000    
   0.00000000       1.00000000       1.00000000       0.00000000       1.00000000    
   6.25000000E-02   0.00000000      0.500000000       0.00000000      0.500000000    
   6.25000000E-02   2.50000004E-02  0.716381252      0.111083843      0.724942505    
   6.25000000E-02   7.50000030E-02  0.919971883      0.251637131      0.953765988    
   6.25000000E-02  0.125000000       1.01073050      0.274276584       1.04728401    
   6.25000000E-02  0.175000012       1.04560161      0.246669739       1.07430387    
   6.25000000E-02  0.224999994       1.05378914      0.201842010       1.07294536    
   6.25000000E-02  0.275000006       1.05049419      0.155058712       1.06187630    
   6.25000000E-02  0.324999988       1.04348922      0.112396002       1.04952490    
   6.25000000E-02  0.375000000       1.03656065       7.53065646E-02   1.03929257    
   6.25000000E-02  0.425000012       1.03141379       4.30471897E-02   1.03231168    
   6.25000000E-02  0.475000024       1.02873230       1.39194215E-02   1.02882648    
   6.25000000E-02  0.524999976       1.02873814      -1.41384406E-02   1.02883530    
   6.25000000E-02  0.575000048       1.03143167      -4.32765000E-02   1.03233922    
   6.25000000E-02  0.625000000       1.03659141      -7.55558535E-02   1.03934133    
   6.25000000E-02  0.675000012       1.04353452     -0.112675861       1.04960001    
   6.25000000E-02  0.725000024       1.05055630     -0.155381605       1.06198490    
   6.25000000E-02  0.774999976       1.05386782     -0.202220917       1.07309401    
   6.25000000E-02  0.825000048       1.04569507     -0.247115850       1.07449734    
   6.25000000E-02  0.875000000       1.01083279     -0.274796903       1.04751909    
   6.25000000E-02  0.925000012      0.920069814     -0.252221465      0.954014778    
   6.25000000E-02  0.975000024      0.716450453     -0.111388952      0.725057721    
   6.25000000E-02   1.00000000      0.500000000       0.00000000      0.500000000    
  0.187500000       0.00000000       0.00000000       0.00000000       0.00000000    
  0.187500000       2.50000004E-02  0.338618308       3.52734216E-02  0.340450555    
  0.187500000       7.50000030E-02  0.729764700      0.112050638      0.738316953    
  0.187500000      0.125000000      0.947877109      0.180423349      0.964895666    
  0.187500000      0.175000012       1.06122088      0.216722116       1.08312428    
  0.187500000      0.224999994       1.11299598      0.221422374       1.13480747    
  0.187500000      0.275000006       1.13064122      0.202269107       1.14859140    
  0.187500000      0.324999988       1.13128412      0.167561024       1.14362597    
  0.187500000      0.375000000       1.12529576      0.123844594       1.13209009    
  0.187500000      0.425000012       1.11869192       7.55045190E-02   1.12123704    
  0.187500000      0.475000024       1.11470199       2.51395609E-02   1.11498547    
  0.187500000      0.524999976       1.11472011      -2.57771369E-02   1.11501813    
  0.187500000      0.575000048       1.11874521      -7.61519223E-02   1.12133408    
  0.187500000      0.625000000       1.12538433     -0.124509662       1.13225114    
  0.187500000      0.675000012       1.13140726     -0.168250084       1.14384890    
  0.187500000      0.725000024       1.13079739     -0.202984154       1.14887130    
  0.187500000      0.774999976       1.11317790     -0.222159505       1.13512993    
  0.187500000      0.825000048       1.06141829     -0.217471749       1.08346796    
  0.187500000      0.875000000      0.948073268     -0.181169987      0.965228200    
  0.187500000      0.925000012      0.729935229     -0.112767458      0.738594532    
  0.187500000      0.975000024      0.338727921      -3.56199928E-02  0.340595633    
  0.187500000       1.00000000       0.00000000       0.00000000       0.00000000    
  0.312500000       0.00000000       0.00000000       0.00000000       0.00000000    
  0.312500000       2.50000004E-02  0.212848917       1.02654938E-02  0.213096321    
  0.312500000       7.50000030E-02  0.558435857       4.24227268E-02  0.560044944    
  0.312500000      0.125000000      0.813186407       8.61923695E-02  0.817741573    
  0.312500000      0.175000012      0.987253726      0.123101011      0.994898915    
  0.312500000      0.224999994       1.09791470      0.143768936       1.10728776    
  0.312500000      0.275000006       1.16287279      0.145812213       1.17197883    
  0.312500000      0.324999988       1.19742346      0.130922377       1.20455956    
  0.312500000      0.375000000       1.21352792      0.102641314       1.21786094    
  0.312500000      0.425000012       1.21975994       6.50124028E-02   1.22149122    
  0.312500000      0.475000024       1.22156942       2.19543241E-02   1.22176671    
  0.312500000      0.524999976       1.22159386      -2.28741392E-02   1.22180796    
  0.312500000      0.575000048       1.21982861      -6.59307465E-02   1.22160900    
  0.312500000      0.625000000       1.21363759     -0.103555590       1.21804762    
  0.312500000      0.675000012       1.19756556     -0.131827995       1.20479953    
  0.312500000      0.725000024       1.16303587     -0.146701783       1.17225158    
  0.312500000      0.774999976       1.09808373     -0.144633397       1.10756791    
  0.312500000      0.825000048      0.987412572     -0.123929650      0.995159328    
  0.312500000      0.875000000      0.813319325      -8.69751126E-02  0.817956626    
  0.312500000      0.925000012      0.558532000      -4.31472845E-02  0.560196102    
  0.312500000      0.975000024      0.212903112      -1.06111942E-02  0.213167384    
  0.312500000       1.00000000       0.00000000       0.00000000       0.00000000    
  0.437500000       0.00000000       0.00000000       0.00000000       0.00000000    
  0.437500000       2.50000004E-02  0.168333620       2.77198968E-03  0.168356448    
  0.437500000       7.50000030E-02  0.466685742       1.52162723E-02  0.466933727    
  0.437500000      0.125000000      0.715138435       3.71000580E-02  0.716100097    
  0.437500000      0.175000012      0.910245240       5.99574745E-02  0.912217796    
  0.437500000      0.224999994       1.05521119       7.69225657E-02   1.05801117    
  0.437500000      0.275000006       1.15724111       8.39633346E-02   1.16028309    
  0.437500000      0.324999988       1.22511899       7.97776431E-02   1.22771370    
  0.437500000      0.375000000       1.26742375       6.51727468E-02   1.26909828    
  0.437500000      0.425000012       1.29135132       4.23577614E-02   1.29204583    
  0.437500000      0.475000024       1.30200624       1.43554918E-02   1.30208540    
  0.437500000      0.524999976       1.30202401      -1.54117513E-02   1.30211520    
  0.437500000      0.575000048       1.29139781      -4.34035435E-02   1.29212701    
  0.437500000      0.625000000       1.26749361      -6.61972985E-02   1.26922107    
  0.437500000      0.675000012       1.22519994      -8.07696059E-02   1.22785938    
  0.437500000      0.725000024       1.15731978      -8.49121138E-02   1.16043055    
  0.437500000      0.774999976       1.05527544      -7.78196603E-02   1.05814087    
  0.437500000      0.825000048      0.910284638      -6.07971959E-02  0.912312686    
  0.437500000      0.875000000      0.715151668      -3.78811508E-02  0.716154218    
  0.437500000      0.925000012      0.466683775      -1.59357060E-02  0.466955781    
  0.437500000      0.975000024      0.168338418      -3.11539066E-03  0.168367252    
  0.437500000       1.00000000       0.00000000       0.00000000       0.00000000    
  0.562500000       0.00000000       0.00000000       0.00000000       0.00000000    
  0.562500000       2.50000004E-02  0.149404556       3.10003488E-05  0.149404556    
  0.562500000       7.50000030E-02  0.420387328       3.77319567E-03  0.420404255    
  0.562500000      0.125000000      0.657205701       1.33162672E-02  0.657340586    
  0.562500000      0.175000012      0.855934143       2.50995588E-02  0.856302083    
  0.562500000      0.224999994       1.01577401       3.53815071E-02   1.01638997    
  0.562500000      0.275000006       1.13873959       4.12659645E-02   1.13948703    
  0.562500000      0.324999988       1.22877073       4.11416963E-02   1.22945929    
  0.562500000      0.375000000       1.29063547       3.47517245E-02   1.29110324    
  0.562500000      0.425000012       1.32889605       2.30148397E-02   1.32909536    
  0.562500000      0.475000024       1.34707594       7.72221852E-03   1.34709811    
  0.562500000      0.524999976       1.34707713      -8.80886521E-03   1.34710598    
  0.562500000      0.575000048       1.32889533      -2.40866207E-02   1.32911360    
  0.562500000      0.625000000       1.29062653      -3.57946083E-02   1.29112279    
  0.562500000      0.675000012       1.22874522      -4.21428233E-02   1.22946775    
  0.562500000      0.725000024       1.13868999      -4.22149897E-02   1.13947225    
  0.562500000      0.774999976       1.01569664      -3.62719521E-02   1.01634419    
  0.562500000      0.825000048      0.855831265      -2.59293988E-02  0.856223941    
  0.562500000      0.875000000      0.657091856      -1.40882824E-02  0.657242835    
  0.562500000      0.925000012      0.420292556      -4.48671170E-03  0.420316488    
  0.562500000      0.975000024      0.149371117      -3.72243638E-04  0.149371579    
  0.562500000       1.00000000       0.00000000       0.00000000       0.00000000    
  0.687500000       0.00000000       0.00000000       0.00000000       0.00000000    
  0.687500000       2.50000004E-02  0.140228435      -1.12999824E-03  0.140232995    
  0.687500000       7.50000030E-02  0.396089137      -1.38805539E-03  0.396091580    
  0.687500000      0.125000000      0.623924136       1.83488079E-03  0.623926818    
  0.687500000      0.175000012      0.821007550       7.07783643E-03  0.821038008    
  0.687500000      0.224999994      0.985912919       1.24581242E-02  0.985991597    
  0.687500000      0.275000006       1.11870408       1.62817705E-02   1.11882257    
  0.687500000      0.324999988       1.22074485       1.73811875E-02   1.22086859    
  0.687500000      0.375000000       1.29421473       1.53011661E-02   1.29430521    
  0.687500000      0.425000012       1.34149480       1.03181582E-02   1.34153450    
  0.687500000      0.475000024       1.36456871       3.32507165E-03   1.36457276    
  0.687500000      0.524999976       1.36455107      -4.37944569E-03   1.36455810    
  0.687500000      0.575000048       1.34143853      -1.13569293E-02   1.34148657    
  0.687500000      0.625000000       1.29411697      -1.63108185E-02   1.29421973    
  0.687500000      0.675000012       1.22060394      -1.83508210E-02   1.22074187    
  0.687500000      0.725000024       1.11852074      -1.72026884E-02   1.11865294    
  0.687500000      0.774999976      0.985694408      -1.33253038E-02  0.985784471    
  0.687500000      0.825000048      0.820769906      -7.89048430E-03  0.820807874    
  0.687500000      0.875000000      0.623696089      -2.59704795E-03  0.623701513    
  0.687500000      0.925000012      0.395915031       6.77435310E-04  0.395915627    
  0.687500000      0.975000024      0.140164763       7.88664620E-04  0.140166983    
  0.687500000       1.00000000       0.00000000       0.00000000       0.00000000    
  0.812500000       0.00000000       0.00000000       0.00000000       0.00000000    
  0.812500000       2.50000004E-02  0.135244131      -1.64599949E-03  0.135254145    
  0.812500000       7.50000030E-02  0.382245898      -3.76315741E-03  0.382264405    
  0.812500000      0.125000000      0.603762984      -3.65081383E-03  0.603774011    
  0.812500000      0.175000012      0.797979116      -1.87472452E-03  0.797981322    
  0.812500000      0.224999994      0.963606894       6.26350113E-04  0.963607132    
  0.812500000      0.275000006       1.10008454       2.92254612E-03   1.10008848    
  0.812500000      0.324999988       1.20758760       4.28492762E-03   1.20759523    
  0.812500000      0.375000000       1.28685784       4.32274025E-03   1.28686512    
  0.812500000      0.425000012       1.33890033       3.03863431E-03   1.33890378    
  0.812500000      0.475000024       1.36463118       7.96577951E-04   1.36463141    
  0.812500000      0.524999976       1.36459553      -1.78931514E-03   1.36459672    
  0.812500000      0.575000048       1.33879089      -4.01778566E-03   1.33879685    
  0.812500000      0.625000000       1.28667879      -5.27701341E-03   1.28668964    
  0.812500000      0.675000012       1.20734227      -5.20508923E-03   1.20735347    
  0.812500000      0.725000024       1.09978271      -3.80154513E-03   1.09978926    
  0.812500000      0.774999976      0.963266313      -1.46061298E-03  0.963267446    
  0.812500000      0.825000048      0.797627330       1.08461012E-03  0.797628105    
  0.812500000      0.875000000      0.603440702       2.90177204E-03  0.603447676    
  0.812500000      0.925000012      0.382007599       3.05868732E-03  0.382019848    
  0.812500000      0.975000024      0.135154098       1.30625570E-03  0.135160401    
  0.812500000       1.00000000       0.00000000       0.00000000       0.00000000    
  0.937500000       0.00000000       0.00000000       0.00000000       0.00000000    
  0.937500000       2.50000004E-02  0.132118851      -1.87341799E-03  0.132132128    
  0.937500000       7.50000030E-02  0.373311639      -4.83864173E-03  0.373342991    
  0.937500000      0.125000000      0.590158105      -6.20203326E-03  0.590190709    
  0.937500000      0.175000012      0.781371593      -6.14975346E-03  0.781395793    
  0.937500000      0.224999994      0.945880890      -5.16893109E-03  0.945895016    
  0.937500000      0.275000006       1.08295965      -3.77415819E-03   1.08296621    
  0.937500000      0.324999988       1.19227982      -2.41173385E-03   1.19228232    
  0.937500000      0.375000000       1.27386880      -1.37827720E-03   1.27386951    
  0.937500000      0.425000012       1.32797837      -7.76844507E-04   1.32797861    
  0.937500000      0.475000024       1.35490704      -5.23105147E-04   1.35490716    
  0.937500000      0.524999976       1.35485578      -3.98379576E-04   1.35485590    
  0.937500000      0.575000048       1.32782614      -1.34878544E-04   1.32782614    
  0.937500000      0.625000000       1.27362323       4.85458266E-04   1.27362335    
  0.937500000      0.675000012       1.19194984       1.54495845E-03   1.19195080    
  0.937500000      0.725000024       1.08256221       2.93869362E-03   1.08256614    
  0.937500000      0.774999976      0.945443094       4.36750287E-03  0.945453167    
  0.937500000      0.825000048      0.780930161       5.38220070E-03  0.780948699    
  0.937500000      0.875000000      0.589762330       5.46656270E-03  0.589787662    
  0.937500000      0.925000012      0.373023868       4.14060056E-03  0.373046845    
  0.937500000      0.975000024      0.132009834       1.53540343E-03  0.132018775    
  0.937500000       1.00000000       0.00000000       0.00000000       0.00000000    
   1.06250000       0.00000000       0.00000000       0.00000000       0.00000000    
   1.06250000       2.50000004E-02  0.129801333      -1.96905271E-03  0.129816264    
   1.06250000       7.50000030E-02  0.366615504      -5.30439615E-03  0.366653860    
   1.06250000      0.125000000      0.579674244      -7.33530894E-03  0.579720616    
   1.06250000      0.175000012      0.767976165      -8.09221156E-03  0.768018782    
   1.06250000      0.224999994      0.930607438      -7.85690453E-03  0.930640638    
   1.06250000      0.275000006       1.06682420      -6.93699904E-03   1.06684673    
   1.06250000      0.324999988       1.17610216      -5.62213222E-03   1.17611563    
   1.06250000      0.375000000       1.25814116      -4.14130790E-03   1.25814795    
   1.06250000      0.425000012       1.31282067      -2.63593090E-03   1.31282330    
   1.06250000      0.475000024       1.34012151      -1.15895621E-03   1.34012198    
   1.06250000      0.524999976       1.34005928       3.02371453E-04   1.34005928    
   1.06250000      0.575000048       1.31263757       1.78578589E-03   1.31263876    
   1.06250000      0.625000000       1.25784576       3.30493087E-03   1.25785017    
   1.06250000      0.675000012       1.17570853       4.80560679E-03   1.17571843    
   1.06250000      0.725000024       1.06635547       6.14333805E-03   1.06637311    
   1.06250000      0.774999976      0.930097818       7.08721951E-03  0.930124819    
   1.06250000      0.825000048      0.767469168       7.34644104E-03  0.767504334    
   1.06250000      0.875000000      0.579225540       6.61245268E-03  0.579263270    
   1.06250000      0.925000012      0.366292715       4.61154059E-03  0.366321743    
   1.06250000      0.975000024      0.129679918       1.63209834E-03  0.129690185    
   1.06250000       1.00000000       0.00000000       0.00000000       0.00000000    
   1.18750000       0.00000000       0.00000000       0.00000000       0.00000000    
   1.18750000       2.50000004E-02  0.127815962      -2.00589071E-03  0.127831697    
   1.18750000       7.50000030E-02  0.360890448      -5.49184531E-03  0.360932231    
   1.18750000      0.125000000      0.570599675      -7.80675793E-03  0.570653081    
   1.18750000      0.175000012      0.756089985      -8.92109051E-03  0.756142616    
   1.18750000      0.224999994      0.916545033      -9.02788900E-03  0.916589499    
   1.18750000      0.275000006       1.05124164      -8.33867490E-03   1.05127466    
   1.18750000      0.324999988       1.15958977      -7.06400443E-03   1.15961134    
   1.18750000      0.375000000       1.24115300      -5.39310183E-03   1.24116468    
   1.18750000      0.425000012       1.29564178      -3.47999949E-03   1.29564643    
   1.18750000      0.475000024       1.32288837      -1.44027290E-03   1.32288909    
   1.18750000      0.524999976       1.32281923       6.39629317E-04   1.32281935    
   1.18750000      0.575000048       1.29543746       2.68409727E-03   1.29544020    
   1.18750000      0.625000000       1.24082255       4.60633030E-03   1.24083114    
   1.18750000      0.675000012       1.15915179       6.28967443E-03   1.15916884    
   1.18750000      0.725000024       1.05072486       7.57902488E-03   1.05075216    
   1.18750000      0.774999976      0.915987253       8.28388520E-03  0.916024685    
   1.18750000      0.825000048      0.755539536       8.19252152E-03  0.755583942    
   1.18750000      0.875000000      0.570116639       7.09355157E-03  0.570160747    
   1.18750000      0.925000012      0.360545218       4.80328919E-03  0.360577196    
   1.18750000      0.975000024      0.127686575       1.67002983E-03  0.127697498    
   1.18750000       1.00000000       0.00000000       0.00000000       0.00000000    
   1.31250000       0.00000000       0.00000000       0.00000000       0.00000000    
   1.31250000       2.50000004E-02  0.125954807      -2.01793737E-03  0.125970960    
   1.31250000       7.50000030E-02  0.355556548      -5.55828866E-03  0.355599970    
   1.31250000      0.125000000      0.562119722      -7.98345543E-03  0.562176406    
   1.31250000      0.175000012      0.744866490      -9.24395118E-03  0.744923830    
   1.31250000      0.224999994      0.903038502      -9.49669443E-03  0.903088450    
   1.31250000      0.275000006       1.03593731      -8.91118776E-03   1.03597569    
   1.31250000      0.324999988       1.14295959      -7.66084436E-03   1.14298522    
   1.31250000      0.375000000       1.22362018      -5.91482688E-03   1.22363448    
   1.31250000      0.425000012       1.27756023      -3.83044779E-03   1.27756596    
   1.31250000      0.475000024       1.30454898      -1.54997583E-03   1.30454993    
   1.31250000      0.524999976       1.30447567       7.95044820E-04   1.30447590    
   1.31250000      0.575000048       1.27734184       3.07760527E-03   1.27734554    
   1.31250000      0.625000000       1.22326756       5.16673457E-03   1.22327852    
   1.31250000      0.675000012       1.14249432       6.91947155E-03   1.14251530    
   1.31250000      0.725000024       1.03539109       8.17787740E-03   1.03542340    
   1.31250000      0.774999976      0.902452111       8.77232850E-03  0.902494729    
   1.31250000      0.825000048      0.744291604       8.52867961E-03  0.744340420    
   1.31250000      0.875000000      0.561618090       7.27827568E-03  0.561665237    
   1.31250000      0.925000012      0.355199516       4.87342849E-03  0.355232954    
   1.31250000      0.975000024      0.125821188       1.68293493E-03  0.125832438    
   1.31250000       1.00000000       0.00000000       0.00000000       0.00000000    
   1.43750000       0.00000000       0.00000000       0.00000000       0.00000000    
   1.43750000       2.50000004E-02  0.124130815      -2.02083751E-03  0.124147266    
   1.43750000       7.50000030E-02  0.350361168      -5.57720382E-03  0.350405574    
   1.43750000      0.125000000      0.553867340      -8.03859904E-03  0.553925693    
   1.43750000      0.175000012      0.733910918      -9.35099088E-03  0.733970463    
   1.43750000      0.224999994      0.889768243      -9.65967402E-03  0.889820695    
   1.43750000      0.275000006       1.02076256      -9.11697000E-03   1.02080321    
   1.43750000      0.324999988       1.12629592      -7.88012519E-03   1.12632346    
   1.43750000      0.375000000       1.20587087      -6.10868819E-03   1.20588636    
   1.43750000      0.425000012       1.25910687      -3.95955052E-03   1.25911319    
   1.43750000      0.475000024       1.28574967      -1.58556923E-03   1.28575063    
   1.43750000      0.524999976       1.28567338       8.63035733E-04   1.28567362    
   1.43750000      0.575000048       1.25888038       3.23750102E-03   1.25888455    
   1.43750000      0.625000000       1.20550609       5.38868457E-03   1.20551813    
   1.43750000      0.675000012       1.12581623       7.16333790E-03   1.12583899    
   1.43750000      0.725000024       1.02020109       8.40339810E-03   1.02023566    
   1.43750000      0.774999976      0.889167547       8.94998387E-03  0.889212608    
   1.43750000      0.825000048      0.733324587       8.64565466E-03  0.733375549    
   1.43750000      0.875000000      0.553357780       7.33866030E-03  0.553406417    
   1.43750000      0.925000012      0.349999905       4.89425752E-03  0.350034118    
   1.43750000      0.975000024      0.123995908       1.68618304E-03  0.124007374    
   1.43750000       1.00000000       0.00000000       0.00000000       0.00000000    
   1.56250000       0.00000000       0.00000000       0.00000000       0.00000000    
   1.56250000       2.50000004E-02  0.122312322      -2.02037627E-03  0.122329004    
   1.56250000       7.50000030E-02  0.345203221      -5.57835028E-03  0.345248282    
   1.56250000      0.125000000      0.545687735      -8.04742239E-03  0.545747042    
   1.56250000      0.175000012      0.723049879      -9.37431678E-03  0.723110616    
   1.56250000      0.224999994      0.876587987      -9.70068388E-03  0.876641691    
   1.56250000      0.275000006       1.00564325      -9.17319581E-03   1.00568509    
   1.56250000      0.324999988       1.10962725      -7.94333778E-03   1.10965562    
   1.56250000      0.375000000       1.18804598      -6.16547605E-03   1.18806195    
   1.56250000      0.425000012       1.24051571      -3.99612403E-03   1.24052215    
   1.56250000      0.475000024       1.26677656      -1.59205077E-03   1.26677752    
   1.56250000      0.524999976       1.26669931       8.90455907E-04   1.26669967    
   1.56250000      0.575000048       1.24028611       3.29485163E-03   1.24029052    
   1.56250000      0.625000000       1.18767679       5.46448492E-03   1.18768930    
   1.56250000      0.675000012       1.10914230       7.24283140E-03   1.10916591    
   1.56250000      0.725000024       1.00507677       8.47323146E-03   1.00511241    
   1.56250000      0.774999976      0.875983715       9.00086761E-03  0.876029968    
   1.56250000      0.825000048      0.722461343       8.67504627E-03  0.722513437    
   1.56250000      0.875000000      0.545177281       7.35073630E-03  0.545226812    
   1.56250000      0.925000012      0.344842196       4.89663240E-03  0.344876945    
   1.56250000      0.975000024      0.122177735       1.68601191E-03  0.122189365    
   1.56250000       1.00000000       0.00000000       0.00000000       0.00000000    
   1.68750000       0.00000000       0.00000000       0.00000000       0.00000000    
   1.68750000       2.50000004E-02  0.120490119      -2.01974413E-03  0.120507047    
   1.68750000       7.50000030E-02  0.340047419      -5.57567086E-03  0.340093136    
   1.68750000      0.125000000      0.537522197      -8.04342143E-03  0.537582397    
   1.68750000      0.175000012      0.712213397      -9.37154330E-03  0.712275028    
   1.68750000      0.224999994      0.863435388      -9.70159471E-03  0.863489866    
   1.68750000      0.275000006      0.990543842      -9.17847268E-03  0.990586340    
   1.68750000      0.324999988       1.09296107      -7.95109011E-03   1.09298992    
   1.68750000      0.375000000       1.17020106      -6.17314875E-03   1.17021739    
   1.68750000      0.425000012       1.22188330      -4.00008820E-03   1.22188985    
   1.68750000      0.475000024       1.24775064      -1.58905622E-03   1.24775159    
   1.68750000      0.524999976       1.24767351       9.00867977E-04   1.24767387    
   1.68750000      0.575000048       1.22165442       3.31117911E-03   1.22165895    
   1.68750000      0.625000000       1.16983259       5.48373256E-03   1.16984546    
   1.68750000      0.675000012       1.09247816       7.26036727E-03   1.09250224    
   1.68750000      0.725000024      0.989980221       8.48564319E-03  0.990016580    
   1.68750000      0.774999976      0.862835765       9.00703948E-03  0.862882793    
   1.68750000      0.825000048      0.711629868       8.67587142E-03  0.711682796    
   1.68750000      0.875000000      0.537016392       7.34851789E-03  0.537066698    
   1.68750000      0.925000012      0.339690030       4.89425845E-03  0.339725286    
   1.68750000      0.975000024      0.120357655       1.68522168E-03  0.120369449    
   1.68750000       1.00000000       0.00000000       0.00000000       0.00000000    
   1.81250000       0.00000000       0.00000000       0.00000000       0.00000000    
   1.81250000       2.50000004E-02  0.118663073      -2.01905915E-03  0.118680246    
   1.81250000       7.50000030E-02  0.334883988      -5.57270693E-03  0.334930360    
   1.81250000      0.125000000      0.529352188      -8.03729240E-03  0.529413223    
   1.81250000      0.175000012      0.701378226      -9.36315581E-03  0.701440752    
   1.81250000      0.224999994      0.850288987      -9.69211012E-03  0.850344241    
   1.81250000      0.275000006      0.975451589      -9.16918740E-03  0.975494683    
   1.81250000      0.324999988       1.07630002      -7.94336386E-03   1.07632935    
   1.81250000      0.375000000       1.15235651      -6.16676454E-03   1.15237308    
   1.81250000      0.425000012       1.20324683      -3.99488490E-03   1.20325351    
   1.81250000      0.475000024       1.22871733      -1.58516876E-03   1.22871840    
   1.81250000      0.524999976       1.22864103       9.03953798E-04   1.22864139    
   1.81250000      0.575000048       1.20302033       3.31296329E-03   1.20302486    
   1.81250000      0.625000000       1.15199208       5.48312813E-03   1.15200508    
   1.81250000      0.675000012       1.07582343       7.25728180E-03   1.07584798    
   1.81250000      0.725000024      0.974895954       8.48004222E-03  0.974932790    
   1.81250000      0.774999976      0.849698305       8.99957586E-03  0.849745929    