 TITLE= "TESTPLOT" 
 VARIABLES="x","y","fx","fy","magf" 
 ZONE T="1", I=          81 , J=          21
   0.00000000       0.00000000       1.00000000       0.00000000       1.00000000    
   0.00000000       2.50000004E-02   1.00000000       0.00000000       1.00000000    
   0.00000000       7.50000030E-02   1.00000000       0.00000000       1.00000000    
   0.00000000      0.125000000       1.00000000       0.00000000       1.00000000    
   0.00000000      0.175000012       1.00000000       0.00000000       1.00000000    
   0.00000000      0.224999994       1.00000000       0.00000000       1.00000000    
   0.00000000      0.275000006       1.00000000       0.00000000       1.00000000    
   0.00000000      0.324999988       1.00000000       0.00000000       1.00000000    
   0.00000000      0.375000000       1.00000000       0.00000000       1.00000000    
   0.00000000      0.425000012       1.00000000       0.00000000       1.00000000    
   0.00000000      0.475000024       1.00000000       0.00000000       1.00000000    
   0.00000000      0.524999976       1.00000000       0.00000000       1.00000000    
   0.00000000      0.575000048       1.00000000       0.00000000       1.00000000    
   0.00000000      0.625000000       1.00000000       0.00000000       1.00000000    
   0.00000000      0.675000012       1.00000000       0.00000000       1.00000000    
   0.00000000      0.725000024       1.00000000       0.00000000       1.00000000    
   0.00000000      0.774999976       1.00000000       0.00000000       1.00000000    
   0.00000000      0.825000048       1.00000000       0.00000000       1.00000000    
   0.00000000      0.875000000       1.00000000       0.00000000       1.00000000    
   0.00000000      0.925000012       1.00000000       0.00000000       1.00000000    
   0.00000000      0.975000024       1.00000000       0.00000000       1.00000000    
   0.00000000       1.00000000       1.00000000       0.00000000       1.00000000    
   6.25000000E-02   0.00000000      0.500000000       0.00000000      0.500000000    
   6.25000000E-02   2.50000004E-02  0.716381550      0.111084037      0.724942923    
   6.25000000E-02   7.50000030E-02  0.919972181      0.251637697      0.953766406    
   6.25000000E-02  0.125000000       1.01073050      0.274277687       1.04728425    
   6.25000000E-02  0.175000012       1.04560184      0.246671334       1.07430446    
   6.25000000E-02  0.224999994       1.05378950      0.201843858       1.07294607    
   6.25000000E-02  0.275000006       1.05049419      0.155060321       1.06187654    
   6.25000000E-02  0.324999988       1.04348898      0.112397328       1.04952490    
   6.25000000E-02  0.375000000       1.03656042       7.53081441E-02   1.03929245    
   6.25000000E-02  0.425000012       1.03141367       4.30486500E-02   1.03231168    
   6.25000000E-02  0.475000024       1.02873218       1.39205083E-02   1.02882636    
   6.25000000E-02  0.524999976       1.02873850      -1.41373342E-02   1.02883565    
   6.25000000E-02  0.575000048       1.03143215      -4.32752371E-02   1.03233957    
   6.25000000E-02  0.625000000       1.03659153      -7.55542442E-02   1.03934133    
   6.25000000E-02  0.675000012       1.04353487     -0.112674467       1.04960024    
   6.25000000E-02  0.725000024       1.05055690     -0.155380875       1.06198537    
   6.25000000E-02  0.774999976       1.05386829     -0.202220380       1.07309437    
   6.25000000E-02  0.825000048       1.04569519     -0.247115135       1.07449722    
   6.25000000E-02  0.875000000       1.01083231     -0.274796247       1.04751849    
   6.25000000E-02  0.925000012      0.920069814     -0.252221048      0.954014599    
   6.25000000E-02  0.975000024      0.716450572     -0.111388773      0.725057840    
   6.25000000E-02   1.00000000      0.500000000       0.00000000      0.500000000    
  0.187500000       0.00000000       0.00000000       0.00000000       0.00000000    
  0.187500000       2.50000004E-02  0.338619143       3.52736451E-02  0.340451390    
  0.187500000       7.50000030E-02  0.729765952      0.112051204      0.738318205    
  0.187500000      0.125000000      0.947877645      0.180424139      0.964896321    
  0.187500000      0.175000012       1.06122208      0.216723114       1.08312571    
  0.187500000      0.224999994       1.11299729      0.221423656       1.13480902    
  0.187500000      0.275000006       1.13064170      0.202270657       1.14859223    
  0.187500000      0.324999988       1.13128424      0.167562753       1.14362633    
  0.187500000      0.375000000       1.12529576      0.123846561       1.13209033    
  0.187500000      0.425000012       1.11869192       7.55067766E-02   1.12123728    
  0.187500000      0.475000024       1.11470246       2.51415074E-02   1.11498594    
  0.187500000      0.524999976       1.11472118      -2.57757530E-02   1.11501908    
  0.187500000      0.575000048       1.11874676      -7.61506334E-02   1.12133551    
  0.187500000      0.625000000       1.12538576     -0.124508366       1.13225234    
  0.187500000      0.675000012       1.13140905     -0.168248802       1.14385056    
  0.187500000      0.725000024       1.13079882     -0.202982619       1.14887249    
  0.187500000      0.774999976       1.11317885     -0.222157896       1.13513041    
  0.187500000      0.825000048       1.06141949     -0.217470407       1.08346891    
  0.187500000      0.875000000      0.948074102     -0.181169063      0.965228856    
  0.187500000      0.925000012      0.729935825     -0.112767354      0.738595188    
  0.187500000      0.975000024      0.338727415      -3.56201753E-02  0.340595156    
  0.187500000       1.00000000       0.00000000       0.00000000       0.00000000    
  0.312500000       0.00000000       0.00000000       0.00000000       0.00000000    
  0.312500000       2.50000004E-02  0.212850869       1.02656744E-02  0.213098273    
  0.312500000       7.50000030E-02  0.558438897       4.24231552E-02  0.560047984    
  0.312500000      0.125000000      0.813188910       8.61928314E-02  0.817744076    
  0.312500000      0.175000012      0.987255931      0.123101711      0.994901121    
  0.312500000      0.224999994       1.09791684      0.143770114       1.10729003    
  0.312500000      0.275000006       1.16287422      0.145813808       1.17198038    
  0.312500000      0.324999988       1.19742489      0.130924314       1.20456111    
  0.312500000      0.375000000       1.21352875      0.102643020       1.21786189    
  0.312500000      0.425000012       1.21976030       6.50138110E-02   1.22149169    
  0.312500000      0.475000024       1.22157097       2.19557229E-02   1.22176826    
  0.312500000      0.524999976       1.22159553      -2.28724573E-02   1.22180963    
  0.312500000      0.575000048       1.21983075      -6.59288988E-02   1.22161114    
  0.312500000      0.625000000       1.21363950     -0.103554286       1.21804941    
  0.312500000      0.675000012       1.19756794     -0.131826878       1.20480180    
  0.312500000      0.725000024       1.16303778     -0.146700248       1.17225325    
  0.312500000      0.774999976       1.09808540     -0.144631475       1.10756934    
  0.312500000      0.825000048      0.987414479     -0.123927653      0.995160997    
  0.312500000      0.875000000      0.813321590      -8.69734883E-02  0.817958653    
  0.312500000      0.925000012      0.558533490      -4.31459248E-02  0.560197473    
  0.312500000      0.975000024      0.212903559      -1.06105125E-02  0.213167787    
  0.312500000       1.00000000       0.00000000       0.00000000       0.00000000    
  0.437500000       0.00000000       0.00000000       0.00000000       0.00000000    
  0.437500000       2.50000004E-02  0.168336004       2.77159573E-03  0.168358818    
  0.437500000       7.50000030E-02  0.466689706       1.52155440E-02  0.466937691    
  0.437500000      0.125000000      0.715142131       3.70996743E-02  0.716103852    
  0.437500000      0.175000012      0.910248280       5.99575341E-02  0.912220836    
  0.437500000      0.224999994       1.05521405       7.69231319E-02   1.05801415    
  0.437500000      0.275000006       1.15724361       8.39643776E-02   1.16028571    
  0.437500000      0.324999988       1.22512150       7.97790289E-02   1.22771633    
  0.437500000      0.375000000       1.26742625       6.51740730E-02   1.26910079    
  0.437500000      0.425000012       1.29135323       4.23587188E-02   1.29204774    
  0.437500000      0.475000024       1.30200958       1.43563040E-02   1.30208874    
  0.437500000      0.524999976       1.30202627      -1.54108470E-02   1.30211747    
  0.437500000      0.575000048       1.29140043      -4.34023999E-02   1.29212952    
  0.437500000      0.625000000       1.26749563      -6.61958307E-02   1.26922297    
  0.437500000      0.675000012       1.22520280      -8.07677954E-02   1.22786212    
  0.437500000      0.725000024       1.15732288      -8.49100947E-02   1.16043353    
  0.437500000      0.774999976       1.05527806      -7.78179765E-02   1.05814338    
  0.437500000      0.825000048      0.910286665      -6.07959628E-02  0.912314594    
  0.437500000      0.875000000      0.715153992      -3.78805399E-02  0.716156483    
  0.437500000      0.925000012      0.466685772      -1.59357525E-02  0.466957778    
  0.437500000      0.975000024      0.168340623      -3.11545003E-03  0.168369442    
  0.437500000       1.00000000       0.00000000       0.00000000       0.00000000    
  0.562500000       0.00000000       0.00000000       0.00000000       0.00000000    
  0.562500000       2.50000004E-02  0.149406731       3.12158554E-05  0.149406731    
  0.562500000       7.50000030E-02  0.420391858       3.77371511E-03  0.420408785    
  0.562500000      0.125000000      0.657210231       1.33168912E-02  0.657345176    
  0.562500000      0.175000012      0.855938792       2.51001678E-02  0.856306732    
  0.562500000      0.224999994       1.01577795       3.53821106E-02   1.01639402    
  0.562500000      0.275000006       1.13874364       4.12667021E-02   1.13949108    
  0.562500000      0.324999988       1.22877467       4.11426164E-02   1.22946334    
  0.562500000      0.375000000       1.29064012       3.47528644E-02   1.29110789    
  0.562500000      0.425000012       1.32890058       2.30159089E-02   1.32909989    
  0.562500000      0.475000024       1.34708071       7.72334542E-03   1.34710288    
  0.562500000      0.524999976       1.34708190      -8.80775787E-03   1.34711075    
  0.562500000      0.575000048       1.32889950      -2.40857638E-02   1.32911777    
  0.562500000      0.625000000       1.29063010      -3.57937366E-02   1.29112637    
  0.562500000      0.675000012       1.22874892      -4.21416499E-02   1.22947133    
  0.562500000      0.725000024       1.13869405      -4.22136709E-02   1.13947630    
  0.562500000      0.774999976       1.01570022      -3.62708829E-02   1.01634765    
  0.562500000      0.825000048      0.855834484      -2.59284005E-02  0.856227160    
  0.562500000      0.875000000      0.657095671      -1.40873585E-02  0.657246649    
  0.562500000      0.925000012      0.420295954      -4.48653335E-03  0.420319915    
  0.562500000      0.975000024      0.149372235      -3.72494833E-04  0.149372697    
  0.562500000       1.00000000       0.00000000       0.00000000       0.00000000    
  0.687500000       0.00000000       0.00000000       0.00000000       0.00000000    
  0.687500000       2.50000004E-02  0.140231520      -1.12988020E-03  0.140236065    
  0.687500000       7.50000030E-02  0.396095216      -1.38771965E-03  0.396097630    
  0.687500000      0.125000000      0.623930693       1.83533644E-03  0.623933375    
  0.687500000      0.175000012      0.821014047       7.07846368E-03  0.821044564    
  0.687500000      0.224999994      0.985918880       1.24589354E-02  0.985997617    
  0.687500000      0.275000006       1.11870968       1.62827503E-02   1.11882818    
  0.687500000      0.324999988       1.22075057       1.73824281E-02   1.22087431    
  0.687500000      0.375000000       1.29422092       1.53020555E-02   1.29431140    
  0.687500000      0.425000012       1.34150112       1.03186509E-02   1.34154081    
  0.687500000      0.475000024       1.36457455       3.32562206E-03   1.36457860    
  0.687500000      0.524999976       1.36455739      -4.37900843E-03   1.36456442    
  0.687500000      0.575000048       1.34144413      -1.13566630E-02   1.34149218    
  0.687500000      0.625000000       1.29412246      -1.63105782E-02   1.29422522    
  0.687500000      0.675000012       1.22060895      -1.83505975E-02   1.22074687    
  0.687500000      0.725000024       1.11852527      -1.72023959E-02   1.11865747    
  0.687500000      0.774999976      0.985699177      -1.33247320E-02  0.985789239    
  0.687500000      0.825000048      0.820774198      -7.88952224E-03  0.820812106    
  0.687500000      0.875000000      0.623701096      -2.59549008E-03  0.623706520    
  0.687500000      0.925000012      0.395919621       6.79035787E-04  0.395920217    
  0.687500000      0.975000024      0.140165925       7.89314450E-04  0.140168145    
  0.687500000       1.00000000       0.00000000       0.00000000       0.00000000    
  0.812500000       0.00000000       0.00000000       0.00000000       0.00000000    
  0.812500000       2.50000004E-02  0.135248303      -1.64569262E-03  0.135258317    
  0.812500000       7.50000030E-02  0.382253557      -3.76236509E-03  0.382272065    
  0.812500000      0.125000000      0.603771091      -3.64958867E-03  0.603782117    
  0.812500000      0.175000012      0.797986507      -1.87346665E-03  0.797988713    
  0.812500000      0.224999994      0.963613987       6.27548492E-04  0.963614225    
  0.812500000      0.275000006       1.10009134       2.92403018E-03   1.10009527    
  0.812500000      0.324999988       1.20759463       4.28665057E-03   1.20760226    
  0.812500000      0.375000000       1.28686452       4.32442687E-03   1.28687179    
  0.812500000      0.425000012       1.33890629       3.03991186E-03   1.33890975    
  0.812500000      0.475000024       1.36463737       7.97197223E-04   1.36463761    
  0.812500000      0.524999976       1.36460173      -1.78989372E-03   1.36460292    
  0.812500000      0.575000048       1.33879709      -4.01925202E-03   1.33880317    
  0.812500000      0.625000000       1.28668499      -5.27840992E-03   1.28669584    
  0.812500000      0.675000012       1.20734835      -5.20594511E-03   1.20735955    
  0.812500000      0.725000024       1.09978807      -3.80228786E-03   1.09979463    
  0.812500000      0.774999976      0.963271737      -1.46139914E-03  0.963272870    
  0.812500000      0.825000048      0.797632635       1.08419033E-03  0.797633410    
  0.812500000      0.875000000      0.603446484       2.90168938E-03  0.603453457    
  0.812500000      0.925000012      0.382012993       3.05893505E-03  0.382025242    
  0.812500000      0.975000024      0.135157540       1.30644802E-03  0.135163859    
  0.812500000       1.00000000       0.00000000       0.00000000       0.00000000    
  0.937500000       0.00000000       0.00000000       0.00000000       0.00000000    
  0.937500000       2.50000004E-02  0.132123023      -1.87283556E-03  0.132136285    
  0.937500000       7.50000030E-02  0.373320580      -4.83720005E-03  0.373351902    
  0.937500000      0.125000000      0.590167403      -6.20009983E-03  0.590199947    
  0.937500000      0.175000012      0.781379461      -6.14728127E-03  0.781403661    
  0.937500000      0.224999994      0.945888102      -5.16634062E-03  0.945902228    
  0.937500000      0.275000006       1.08296669      -3.77210276E-03   1.08297324    
  0.937500000      0.324999988       1.19228649      -2.41021090E-03   1.19228888    
  0.937500000      0.375000000       1.27387536      -1.37710595E-03   1.27387607    
  0.937500000      0.425000012       1.32798386      -7.76308822E-04   1.32798409    
  0.937500000      0.475000024       1.35491252      -5.23587805E-04   1.35491264    
  0.937500000      0.524999976       1.35486197      -3.99424345E-04   1.35486197    
  0.937500000      0.575000048       1.32783270      -1.36430666E-04   1.32783270    
  0.937500000      0.625000000       1.27362919       4.83125448E-04   1.27362931    
  0.937500000      0.675000012       1.19195545       1.54254842E-03   1.19195640    
  0.937500000      0.725000024       1.08256805       2.93669337E-03   1.08257198    
  0.937500000      0.774999976      0.945449114       4.36578086E-03  0.945459187    
  0.937500000      0.825000048      0.780936956       5.38068730E-03  0.780955493    
  0.937500000      0.875000000      0.589769602       5.46529610E-03  0.589794934    
  0.937500000      0.925000012      0.373030752       4.13965294E-03  0.373053730    
  0.937500000      0.975000024      0.132014439       1.53502170E-03  0.132023364    
  0.937500000       1.00000000       0.00000000       0.00000000       0.00000000    
   1.06250000       0.00000000       0.00000000       0.00000000       0.00000000    
   1.06250000       2.50000004E-02  0.129806995      -1.96927553E-03  0.129821941    
   1.06250000       7.50000030E-02  0.366625488      -5.30447811E-03  0.366663873    
   1.06250000      0.125000000      0.579684496      -7.33516645E-03  0.579730868    
   1.06250000      0.175000012      0.767984867      -8.09213333E-03  0.768027544    
   1.06250000      0.224999994      0.930615366      -7.85663165E-03  0.930648506    
   1.06250000      0.275000006       1.06683135      -6.93697389E-03   1.06685388    
   1.06250000      0.324999988       1.17610860      -5.62250521E-03   1.17612207    
   1.06250000      0.375000000       1.25814795      -4.14134888E-03   1.25815475    
   1.06250000      0.425000012       1.31282663      -2.63599539E-03   1.31282926    
   1.06250000      0.475000024       1.34012675      -1.15993107E-03   1.34012723    
   1.06250000      0.524999976       1.34006536       3.00941931E-04   1.34006536    
   1.06250000      0.575000048       1.31264377       1.78487250E-03   1.31264496    
   1.06250000      0.625000000       1.25785100       3.30428872E-03   1.25785542    
   1.06250000      0.675000012       1.17571390       4.80484217E-03   1.17572367    
   1.06250000      0.725000024       1.06636178       6.14228752E-03   1.06637943    
   1.06250000      0.774999976      0.930105269       7.08575081E-03  0.930132210    
   1.06250000      0.825000048      0.767477512       7.34500587E-03  0.767512679    
   1.06250000      0.875000000      0.579234660       6.61129737E-03  0.579272389    
   1.06250000      0.925000012      0.366301149       4.61080344E-03  0.366330177    
   1.06250000      0.975000024      0.129685014       1.63185631E-03  0.129695281    
   1.06250000       1.00000000       0.00000000       0.00000000       0.00000000    
   1.18750000       0.00000000       0.00000000       0.00000000       0.00000000    
   1.18750000       2.50000004E-02  0.127822757      -2.00606580E-03  0.127838507    
   1.18750000       7.50000030E-02  0.360900432      -5.49192214E-03  0.360942215    
   1.18750000      0.125000000      0.570609689      -7.80665409E-03  0.570663095    
   1.18750000      0.175000012      0.756098747      -8.92135315E-03  0.756151378    
   1.18750000      0.224999994      0.916553497      -9.02888272E-03  0.916597962    
   1.18750000      0.275000006       1.05124950      -8.34022090E-03   1.05128264    
   1.18750000      0.324999988       1.15959740      -7.06562260E-03   1.15961897    
   1.18750000      0.375000000       1.24116039      -5.39445411E-03   1.24117208    
   1.18750000      0.425000012       1.29564953      -3.48116644E-03   1.29565418    
   1.18750000      0.475000024       1.32289505      -1.44155754E-03   1.32289577    
   1.18750000      0.524999976       1.32282627       6.38398051E-04   1.32282639    
   1.18750000      0.575000048       1.29544401       2.68319412E-03   1.29544675    
   1.18750000      0.625000000       1.24082804       4.60600154E-03   1.24083662    
   1.18750000      0.675000012       1.15915775       6.29009306E-03   1.15917480    
   1.18750000      0.725000024       1.05073130       7.57971033E-03   1.05075860    
   1.18750000      0.774999976      0.915995359       8.28411523E-03  0.916032791    
   1.18750000      0.825000048      0.755548656       8.19256157E-03  0.755593061    
   1.18750000      0.875000000      0.570126355       7.09361490E-03  0.570170462    
   1.18750000      0.925000012      0.360554695       4.80336137E-03  0.360586673    
   1.18750000      0.975000024      0.127692968       1.67013006E-03  0.127703890    
   1.18750000       1.00000000       0.00000000       0.00000000       0.00000000    
   1.31250000       0.00000000       0.00000000       0.00000000       0.00000000    
   1.31250000       2.50000004E-02  0.125960797      -2.01848149E-03  0.125976965    
   1.31250000       7.50000030E-02  0.355566502      -5.55946399E-03  0.355609953    
   1.31250000      0.125000000      0.562130094      -7.98471831E-03  0.562186778    
   1.31250000      0.175000012      0.744875908      -9.24521685E-03  0.744933307    
   1.31250000      0.224999994      0.903047740      -9.49782226E-03  0.903097630    
   1.31250000      0.275000006       1.03594637      -8.91192630E-03   1.03598464    
   1.31250000      0.324999988       1.14296865      -7.66162295E-03   1.14299428    
   1.31250000      0.375000000       1.22362828      -5.91563433E-03   1.22364259    
   1.31250000      0.425000012       1.27756906      -3.83100775E-03   1.27757478    
   1.31250000      0.475000024       1.30455804      -1.55124033E-03   1.30455899    
   1.31250000      0.524999976       1.30448437       7.93068204E-04   1.30448461    
   1.31250000      0.575000048       1.27734971       3.07592098E-03   1.27735341    
   1.31250000      0.625000000       1.22327459       5.16545307E-03   1.22328556    
   1.31250000      0.675000012       1.14250124       6.91866083E-03   1.14252222    
   1.31250000      0.725000024       1.03539884       8.17758404E-03   1.03543115    
   1.31250000      0.774999976      0.902461171       8.77229311E-03  0.902503788    
   1.31250000      0.825000048      0.744301438       8.52904655E-03  0.744350314    
   1.31250000      0.875000000      0.561628222       7.27858953E-03  0.561675370    
   1.31250000      0.925000012      0.355209291       4.87307319E-03  0.355242729    
   1.31250000      0.975000024      0.125827029       1.68259081E-03  0.125838280    
   1.31250000       1.00000000       0.00000000       0.00000000       0.00000000    
   1.43750000       0.00000000       0.00000000       0.00000000       0.00000000    
   1.43750000       2.50000004E-02  0.124136865      -2.02139281E-03  0.124153323    
   1.43750000       7.50000030E-02  0.350371778      -5.57829719E-03  0.350416183    
   1.43750000      0.125000000      0.553878307      -8.03979393E-03  0.553936660    
   1.43750000      0.175000012      0.733921170      -9.35249589E-03  0.733980715    
   1.43750000      0.224999994      0.889777660      -9.66085680E-03  0.889830112    
   1.43750000      0.275000006       1.02077174      -9.11752693E-03   1.02081239    
   1.43750000      0.324999988       1.12630534      -7.88076874E-03   1.12633288    
   1.43750000      0.375000000       1.20588005      -6.10960135E-03   1.20589554    
   1.43750000      0.425000012       1.25911593      -3.96088744E-03   1.25912213    
   1.43750000      0.475000024       1.28575921      -1.58743782E-03   1.28576016    
   1.43750000      0.524999976       1.28568244       8.61268549E-04   1.28568268    
   1.43750000      0.575000048       1.25888944       3.23622720E-03   1.25889361    
   1.43750000      0.625000000       1.20551443       5.38761681E-03   1.20552647    
   1.43750000      0.675000012       1.12582445       7.16239167E-03   1.12584722    
   1.43750000      0.725000024       1.02021050       8.40295572E-03   1.02024508    
   1.43750000      0.774999976      0.889177561       8.95000808E-03  0.889222622    
   1.43750000      0.825000048      0.733335137       8.64615291E-03  0.733386099    
   1.43750000      0.875000000      0.553368807       7.33937463E-03  0.553417444    
   1.43750000      0.925000012      0.350010157       4.89493785E-03  0.350044399    
   1.43750000      0.975000024      0.124001861       1.68658944E-03  0.124013327    
   1.43750000       1.00000000       0.00000000       0.00000000       0.00000000    
   1.56250000       0.00000000       0.00000000       0.00000000       0.00000000    
   1.56250000       2.50000004E-02  0.122318223      -2.02072877E-03  0.122334912    
   1.56250000       7.50000030E-02  0.345213741      -5.57875540E-03  0.345258802    
   1.56250000      0.125000000      0.545698762      -8.04775767E-03  0.545758069    
   1.56250000      0.175000012      0.723060727      -9.37495101E-03  0.723121524    
   1.56250000      0.224999994      0.876597703      -9.70186107E-03  0.876651406    
   1.56250000      0.275000006       1.00565243      -9.17470828E-03   1.00569427    
   1.56250000      0.324999988       1.10963702      -7.94441067E-03   1.10966539    
   1.56250000      0.375000000       1.18805611      -6.16636081E-03   1.18807209    
   1.56250000      0.425000012       1.24052548      -3.99689004E-03   1.24053192    
   1.56250000      0.475000024       1.26678658      -1.59242912E-03   1.26678753    
   1.56250000      0.524999976       1.26670933       8.89823248E-04   1.26670969    
   1.56250000      0.575000048       1.24029613       3.29407887E-03   1.24030054    
   1.56250000      0.625000000       1.18768644       5.46410866E-03   1.18769896    
   1.56250000      0.675000012       1.10915232       7.24221207E-03   1.10917592    
   1.56250000      0.725000024       1.00508749       8.47232156E-03   1.00512314    
   1.56250000      0.774999976      0.875995040       9.00009088E-03  0.876041293    
   1.56250000      0.825000048      0.722473145       8.67448747E-03  0.722525239    
   1.56250000      0.875000000      0.545189500       7.35000195E-03  0.545239031    
   1.56250000      0.925000012      0.344853610       4.89569409E-03  0.344888359    
   1.56250000      0.975000024      0.122185007       1.68560864E-03  0.122196637    
   1.56250000       1.00000000       0.00000000       0.00000000       0.00000000    
   1.68750000       0.00000000       0.00000000       0.00000000       0.00000000    
   1.68750000       2.50000004E-02  0.120496079      -2.01924308E-03  0.120513000    
   1.68750000       7.50000030E-02  0.340058148      -5.57480240E-03  0.340103835    
   1.68750000      0.125000000      0.537533522      -8.04293621E-03  0.537593722    
   1.68750000      0.175000012      0.712224722      -9.37147625E-03  0.712286353    
   1.68750000      0.224999994      0.863446295      -9.70150903E-03  0.863500774    
   1.68750000      0.275000006      0.990554035      -9.17848665E-03  0.990596533    
   1.68750000      0.324999988       1.09297168      -7.95174297E-03   1.09300065    
   1.68750000      0.375000000       1.17021132      -6.17379043E-03   1.17022765    
   1.68750000      0.425000012       1.22189379      -4.00055107E-03   1.22190034    
   1.68750000      0.475000024       1.24776101      -1.58967474E-03   1.24776196    
   1.68750000      0.524999976       1.24768436       9.00649407E-04   1.24768472    
   1.68750000      0.575000048       1.22166479       3.31128365E-03   1.22166932    
   1.68750000      0.625000000       1.16984355       5.48350438E-03   1.16985643    
   1.68750000      0.675000012       1.09248960       7.26002362E-03   1.09251368    
   1.68750000      0.725000024      0.989992142       8.48533027E-03  0.990028501    
   1.68750000      0.774999976      0.862848163       9.00650769E-03  0.862895191    
   1.68750000      0.825000048      0.711642742       8.67509935E-03  0.711695611    
   1.68750000      0.875000000      0.537029862       7.34773604E-03  0.537080109    
   1.68750000      0.925000012      0.339702576       4.89343749E-03  0.339737833    
   1.68750000      0.975000024      0.120363496       1.68471783E-03  0.120375283    
   1.68750000       1.00000000       0.00000000       0.00000000       0.00000000    
   1.81250000       0.00000000       0.00000000       0.00000000       0.00000000    
   1.81250000       2.50000004E-02  0.118669182      -2.01822328E-03  0.118686348    
   1.81250000       7.50000030E-02  0.334895670      -5.57099981E-03  0.334942013    
   1.81250000      0.125000000      0.529364109      -8.03590380E-03  0.529425085    
   1.81250000      0.175000012      0.701389194      -9.36233997E-03  0.701451659    
   1.81250000      0.224999994      0.850299478      -9.69158765E-03  0.850354731    
   1.81250000      0.275000006      0.975461602      -9.16878134E-03  0.975504696    
   1.81250000      0.324999988       1.07631016      -7.94302765E-03   1.07633948    
   1.81250000      0.375000000       1.15236640      -6.16669608E-03   1.15238285    
   1.81250000      0.425000012       1.20325661      -3.99503019E-03   1.20326328    
   1.81250000      0.475000024       1.22872639      -1.58531370E-03   1.22872734    
   1.81250000      0.524999976       1.22865105       9.03753098E-04   1.22865140    
   1.81250000      0.575000048       1.20302987       3.31269903E-03   1.20303440    
   1.81250000      0.625000000       1.15200245       5.48279053E-03   1.15201557    
   1.81250000      0.675000012       1.07583368       7.25715421E-03   1.07585824    
   1.81250000      0.725000024      0.974906623       8.48038588E-03  0.974943519    
   1.81250000      0.774999976      0.849709392       9.00021754E-03  0.849757016    