 TITLE= "TESTPLOT" 
 VARIABLES="x","y","fx","fy","magf" 
 ZONE T="1", I=          81 , J=          21
   0.00000000       0.00000000       1.00000000       0.00000000       1.00000000    
   0.00000000       2.50000004E-02   1.00000000       0.00000000       1.00000000    
   0.00000000       7.50000030E-02   1.00000000       0.00000000       1.00000000    
   0.00000000      0.125000000       1.00000000       0.00000000       1.00000000    
   0.00000000      0.175000012       1.00000000       0.00000000       1.00000000    
   0.00000000      0.224999994       1.00000000       0.00000000       1.00000000    
   0.00000000      0.275000006       1.00000000       0.00000000       1.00000000    
   0.00000000      0.324999988       1.00000000       0.00000000       1.00000000    
   0.00000000      0.375000000       1.00000000       0.00000000       1.00000000    
   0.00000000      0.425000012       1.00000000       0.00000000       1.00000000    
   0.00000000      0.475000024       1.00000000       0.00000000       1.00000000    
   0.00000000      0.524999976       1.00000000       0.00000000       1.00000000    
   0.00000000      0.575000048       1.00000000       0.00000000       1.00000000    
   0.00000000      0.625000000       1.00000000       0.00000000       1.00000000    
   0.00000000      0.675000012       1.00000000       0.00000000       1.00000000    
   0.00000000      0.725000024       1.00000000       0.00000000       1.00000000    
   0.00000000      0.774999976       1.00000000       0.00000000       1.00000000    
   0.00000000      0.825000048       1.00000000       0.00000000       1.00000000    
   0.00000000      0.875000000       1.00000000       0.00000000       1.00000000    
   0.00000000      0.925000012       1.00000000       0.00000000       1.00000000    
   0.00000000      0.975000024       1.00000000       0.00000000       1.00000000    
   0.00000000       1.00000000       1.00000000       0.00000000       1.00000000    
   6.25000000E-02   0.00000000      0.500000000       0.00000000      0.500000000    
   6.25000000E-02   2.50000004E-02  0.716385722      0.111084215      0.724947035    
   6.25000000E-02   7.50000030E-02  0.919977784      0.251637518      0.953771770    
   6.25000000E-02  0.125000000       1.01073599      0.274276316       1.04728925    
   6.25000000E-02  0.175000012       1.04560614      0.246669501       1.07430816    
   6.25000000E-02  0.224999994       1.05379367      0.201842159       1.07294989    
   6.25000000E-02  0.275000006       1.05049896      0.155058876       1.06188095    
   6.25000000E-02  0.324999988       1.04349375      0.112396024       1.04952943    
   6.25000000E-02  0.375000000       1.03656530       7.53066614E-02   1.03929722    
   6.25000000E-02  0.425000012       1.03141868       4.30473760E-02   1.03231668    
   6.25000000E-02  0.475000024       1.02873731       1.39193097E-02   1.02883148    
   6.25000000E-02  0.524999976       1.02874327      -1.41388029E-02   1.02884042    
   6.25000000E-02  0.575000048       1.03143680      -4.32766899E-02   1.03234434    
   6.25000000E-02  0.625000000       1.03659654      -7.55556226E-02   1.03934646    
   6.25000000E-02  0.675000012       1.04353952     -0.112675443       1.04960489    
   6.25000000E-02  0.725000024       1.05056143     -0.155381054       1.06198990    
   6.25000000E-02  0.774999976       1.05387259     -0.202219874       1.07309842    
   6.25000000E-02  0.825000048       1.04570007     -0.247114182       1.07450175    
   6.25000000E-02  0.875000000       1.01083851     -0.274795294       1.04752409    
   6.25000000E-02  0.925000012      0.920076311     -0.252220571      0.954020739    
   6.25000000E-02  0.975000024      0.716455162     -0.111388735      0.725062370    
   6.25000000E-02   1.00000000      0.500000000       0.00000000      0.500000000    
  0.187500000       0.00000000       0.00000000       0.00000000       0.00000000    
  0.187500000       2.50000004E-02  0.338632643       3.52733508E-02  0.340464801    
  0.187500000       7.50000030E-02  0.729783535      0.112049900      0.738335431    
  0.187500000      0.125000000      0.947893858      0.180421859      0.964911819    
  0.187500000      0.175000012       1.06123531      0.216720223       1.08313799    
  0.187500000      0.224999994       1.11300969      0.221420541       1.13482058    
  0.187500000      0.275000006       1.13065517      0.202268183       1.14860499    
  0.187500000      0.324999988       1.13129854      0.167560846       1.14364028    
  0.187500000      0.375000000       1.12531066      0.123844795       1.13210499    
  0.187500000      0.425000012       1.11870718       7.55053312E-02   1.12125230    
  0.187500000      0.475000024       1.11471820       2.51403470E-02   1.11500168    
  0.187500000      0.524999976       1.11473644      -2.57766973E-02   1.11503446    
  0.187500000      0.575000048       1.11876142      -7.61515126E-02   1.12135017    
  0.187500000      0.625000000       1.12540054     -0.124509424       1.13226712    
  0.187500000      0.675000012       1.13142276     -0.168249547       1.14386427    
  0.187500000      0.725000024       1.13081241     -0.202982441       1.14888573    
  0.187500000      0.774999976       1.11319232     -0.222156852       1.13514352    
  0.187500000      0.825000048       1.06143379     -0.217468888       1.08348250    
  0.187500000      0.875000000      0.948091269     -0.181167483      0.965245426    
  0.187500000      0.925000012      0.729955018     -0.112766162      0.738613963    
  0.187500000      0.975000024      0.338741899      -3.56197469E-02  0.340609521    
  0.187500000       1.00000000       0.00000000       0.00000000       0.00000000    
  0.312500000       0.00000000       0.00000000       0.00000000       0.00000000    
  0.312500000       2.50000004E-02  0.212873250       1.02656838E-02  0.213120639    
  0.312500000       7.50000030E-02  0.558468699       4.24224734E-02  0.560077667    
  0.312500000      0.125000000      0.813215256       8.61910805E-02  0.817770123    
  0.312500000      0.175000012      0.987278581      0.123099238      0.994923294    
  0.312500000      0.224999994       1.09793782      0.143767059       1.10731041    
  0.312500000      0.275000006       1.16289580      0.145810768       1.17200148    
  0.312500000      0.324999988       1.19744802      0.130921841       1.20458388    
  0.312500000      0.375000000       1.21355367      0.102641389       1.21788657    
  0.312500000      0.425000012       1.21978593       6.50129318E-02   1.22151721    
  0.312500000      0.475000024       1.22159767       2.19552293E-02   1.22179496    
  0.312500000      0.524999976       1.22162151      -2.28729993E-02   1.22183561    
  0.312500000      0.575000048       1.21985567      -6.59295470E-02   1.22163606    
  0.312500000      0.625000000       1.21366429     -0.103554338       1.21807408    
  0.312500000      0.675000012       1.19759107     -0.131826401       1.20482469    
  0.312500000      0.725000024       1.16306055     -0.146699488       1.17227578    
  0.312500000      0.774999976       1.09810853     -0.144630164       1.10759211    
  0.312500000      0.825000048      0.987439156     -0.123926193      0.995185316    
  0.312500000      0.875000000      0.813350022      -8.69726315E-02  0.817986846    
  0.312500000      0.925000012      0.558565497      -4.31461781E-02  0.560229421    
  0.312500000      0.975000024      0.212926522      -1.06109362E-02  0.213190749    
  0.312500000       1.00000000       0.00000000       0.00000000       0.00000000    
  0.437500000       0.00000000       0.00000000       0.00000000       0.00000000    
  0.437500000       2.50000004E-02  0.168365985       2.77187140E-03  0.168388799    
  0.437500000       7.50000030E-02  0.466731787       1.52151827E-02  0.466979712    
  0.437500000      0.125000000      0.715179503       3.70978415E-02  0.716141045    
  0.437500000      0.175000012      0.910280645       5.99551946E-02  0.912252963    
  0.437500000      0.224999994       1.05524397       7.69207701E-02   1.05804384    
  0.437500000      0.275000006       1.15727377       8.39621052E-02   1.16031563    
  0.437500000      0.324999988       1.22515345       7.97772259E-02   1.22774816    
  0.437500000      0.375000000       1.26745987       6.51731268E-02   1.26913440    
  0.437500000      0.425000012       1.29138851       4.23583239E-02   1.29208302    
  0.437500000      0.475000024       1.30204511       1.43561065E-02   1.30212426    
  0.437500000      0.524999976       1.30206192      -1.54106840E-02   1.30215311    
  0.437500000      0.575000048       1.29143572      -4.34022546E-02   1.29216480    
  0.437500000      0.625000000       1.26752985      -6.61956742E-02   1.26925719    
  0.437500000      0.675000012       1.22523499      -8.07673782E-02   1.22789419    
  0.437500000      0.725000024       1.15735435      -8.49093795E-02   1.16046488    
  0.437500000      0.774999976       1.05531001      -7.78167546E-02   1.05817521    
  0.437500000      0.825000048      0.910322130      -6.07945248E-02  0.912349880    
  0.437500000      0.875000000      0.715194881      -3.78792398E-02  0.716197312    
  0.437500000      0.925000012      0.466731369      -1.59348175E-02  0.467003316    
  0.437500000      0.975000024      0.168372303      -3.11513687E-03  0.168401122    
  0.437500000       1.00000000       0.00000000       0.00000000       0.00000000    
  0.562500000       0.00000000       0.00000000       0.00000000       0.00000000    
  0.562500000       2.50000004E-02  0.149445921       3.08770796E-05  0.149445936    
  0.562500000       7.50000030E-02  0.420446277       3.77230346E-03  0.420463204    
  0.562500000      0.125000000      0.657258511       1.33143160E-02  0.657393336    
  0.562500000      0.175000012      0.855979919       2.50973236E-02  0.856347740    
  0.562500000      0.224999994       1.01581573       3.53795588E-02   1.01643169    
  0.562500000      0.275000006       1.13878179       4.12646085E-02   1.13952923    
  0.562500000      0.324999988       1.22881436       4.11410034E-02   1.22950280    
  0.562500000      0.375000000       1.29068160       3.47515568E-02   1.29114938    
  0.562500000      0.425000012       1.32894444       2.30149850E-02   1.32914376    
  0.562500000      0.475000024       1.34712434       7.72273587E-03   1.34714651    
  0.562500000      0.524999976       1.34712553      -8.80790316E-03   1.34715438    
  0.562500000      0.575000048       1.32894421      -2.40852498E-02   1.32916236    
  0.562500000      0.625000000       1.29067349      -3.57928351E-02   1.29116976    
  0.562500000      0.675000012       1.22879004      -4.21409309E-02   1.22951245    
  0.562500000      0.725000024       1.13873363      -4.22127843E-02   1.13951576    
  0.562500000      0.774999976       1.01574051      -3.62694487E-02   1.01638782    
  0.562500000      0.825000048      0.855879664      -2.59271935E-02  0.856272280    
  0.562500000      0.875000000      0.657147825      -1.40867624E-02  0.657298744    
  0.562500000      0.925000012      0.420354307      -4.48634801E-03  0.420378268    
  0.562500000      0.975000024      0.149414182      -3.72457696E-04  0.149414644    
  0.562500000       1.00000000       0.00000000       0.00000000       0.00000000    
  0.687500000       0.00000000       0.00000000       0.00000000       0.00000000    
  0.687500000       2.50000004E-02  0.140279859      -1.12954038E-03  0.140284404    
  0.687500000       7.50000030E-02  0.396162003      -1.38796039E-03  0.396164417    
  0.687500000      0.125000000      0.623989820       1.83362293E-03  0.623992503    
  0.687500000      0.175000012      0.821064234       7.07613723E-03  0.821094692    
  0.687500000      0.224999994      0.985964715       1.24567375E-02  0.986043394    
  0.687500000      0.275000006       1.11875582       1.62806846E-02   1.11887419    
  0.687500000      0.324999988       1.22079790       1.73801873E-02   1.22092164    
  0.687500000      0.375000000       1.29427063       1.53001491E-02   1.29436111    
  0.687500000      0.425000012       1.34155309       1.03176590E-02   1.34159279    
  0.687500000      0.475000024       1.36462688       3.32548819E-03   1.36463094    
  0.687500000      0.524999976       1.36460972      -4.37834067E-03   1.36461675    
  0.687500000      0.575000048       1.34149778      -1.13556609E-02   1.34154582    
  0.687500000      0.625000000       1.29417419      -1.63095184E-02   1.29427695    
  0.687500000      0.675000012       1.22065854      -1.83490478E-02   1.22079647    
  0.687500000      0.725000024       1.11857390      -1.72004774E-02   1.11870611    
  0.687500000      0.774999976      0.985748172      -1.33226663E-02  0.985838234    
  0.687500000      0.825000048      0.820828795      -7.88748357E-03  0.820866704    
  0.687500000      0.875000000      0.623764634      -2.59415177E-03  0.623769999    
  0.687500000      0.925000012      0.395990193       6.79344870E-04  0.395990759    
  0.687500000      0.975000024      0.140216380       7.89216952E-04  0.140218601    
  0.687500000       1.00000000       0.00000000       0.00000000       0.00000000    
  0.812500000       0.00000000       0.00000000       0.00000000       0.00000000    
  0.812500000       2.50000004E-02  0.135304838      -1.64554140E-03  0.135314852    
  0.812500000       7.50000030E-02  0.382333279      -3.76285566E-03  0.382351786    
  0.812500000      0.125000000      0.603842080      -3.65152163E-03  0.603853106    
  0.812500000      0.175000012      0.798046887      -1.87613047E-03  0.798049092    
  0.812500000      0.224999994      0.963668704       6.24845154E-04  0.963668883    
  0.812500000      0.275000006       1.10014558       2.92156776E-03   1.10014939    
  0.812500000      0.324999988       1.20765078       4.28425940E-03   1.20765841    
  0.812500000      0.375000000       1.28692317       4.32206038E-03   1.28693044    
  0.812500000      0.425000012       1.33896625       3.03834258E-03   1.33896971    
  0.812500000      0.475000024       1.36469805       7.96872424E-04   1.36469829    
  0.812500000      0.524999976       1.36466277      -1.78887427E-03   1.36466396    
  0.812500000      0.575000048       1.33885884      -4.01708484E-03   1.33886492    
  0.812500000      0.625000000       1.28674483      -5.27591677E-03   1.28675556    
  0.812500000      0.675000012       1.20740628      -5.20361913E-03   1.20741749    
  0.812500000      0.725000024       1.09984541      -3.79955396E-03   1.09985197    
  0.812500000      0.774999976      0.963329911      -1.45820773E-03  0.963331044    
  0.812500000      0.825000048      0.797696650       1.08714006E-03  0.797697365    
  0.812500000      0.875000000      0.603521228       2.90402980E-03  0.603528202    
  0.812500000      0.925000012      0.382095814       3.06011643E-03  0.382108063    
  0.812500000      0.975000024      0.135215744       1.30666292E-03  0.135222062    
  0.812500000       1.00000000       0.00000000       0.00000000       0.00000000    
  0.937500000       0.00000000       0.00000000       0.00000000       0.00000000    
  0.937500000       2.50000004E-02  0.132189065      -1.87312986E-03  0.132202342    
  0.937500000       7.50000030E-02  0.373412788      -4.83839680E-03  0.373444140    
  0.937500000      0.125000000      0.590249538      -6.20220974E-03  0.590282142    
  0.937500000      0.175000012      0.781449795      -6.15006965E-03  0.781473994    
  0.937500000      0.224999994      0.945951700      -5.16950386E-03  0.945965827    
  0.937500000      0.275000006       1.08302903      -3.77475703E-03   1.08303571    
  0.937500000      0.324999988       1.19235110      -2.41186400E-03   1.19235361    
  0.937500000      0.375000000       1.27394164      -1.37778302E-03   1.27394235    
  0.937500000      0.425000012       1.32805121      -7.76145200E-04   1.32805145    
  0.937500000      0.475000024       1.35498178      -5.23019291E-04   1.35498190    
  0.937500000      0.524999976       1.35493112      -3.98916949E-04   1.35493112    
  0.937500000      0.575000048       1.32790089      -1.35689785E-04   1.32790089    
  0.937500000      0.625000000       1.27369690       4.84886783E-04   1.27369702    
  0.937500000      0.675000012       1.19202185       1.54529221E-03   1.19202280    
  0.937500000      0.725000024       1.08263326       2.93972879E-03   1.08263719    
  0.937500000      0.774999976      0.945515990       4.36897483E-03  0.945526063    
  0.937500000      0.825000048      0.781010270       5.38408849E-03  0.781028807    
  0.937500000      0.875000000      0.589855134       5.46834525E-03  0.589880466    
  0.937500000      0.925000012      0.373125613       4.14144294E-03  0.373148590    
  0.937500000      0.975000024      0.132080868       1.53548084E-03  0.132089794    
  0.937500000       1.00000000       0.00000000       0.00000000       0.00000000    
   1.06250000       0.00000000       0.00000000       0.00000000       0.00000000    
   1.06250000       2.50000004E-02  0.129881471      -1.96903897E-03  0.129896402    
   1.06250000       7.50000030E-02  0.366729915      -5.30473515E-03  0.366768271    
   1.06250000      0.125000000      0.579777598      -7.33639300E-03  0.579824030    
   1.06250000      0.175000012      0.768064380      -8.09384137E-03  0.768107057    
   1.06250000      0.224999994      0.930687249      -7.85886683E-03  0.930720448    
   1.06250000      0.275000006       1.06690156      -6.93920255E-03   1.06692410    
   1.06250000      0.324999988       1.17618048      -5.62412618E-03   1.17619395    
   1.06250000      0.375000000       1.25822115      -4.14258335E-03   1.25822794    
   1.06250000      0.425000012       1.31290150      -2.63673277E-03   1.31290412    
   1.06250000      0.475000024       1.34020376      -1.15940056E-03   1.34020424    
   1.06250000      0.524999976       1.34014225       3.02762550E-04   1.34014225    
   1.06250000      0.575000048       1.31271946       1.78723899E-03   1.31272066    
   1.06250000      0.625000000       1.25792658       3.30708176E-03   1.25793099    
   1.06250000      0.675000012       1.17578816       4.80800029E-03   1.17579794    
   1.06250000      0.725000024       1.06643522       6.14575110E-03   1.06645286    
   1.06250000      0.774999976      0.930180371       7.08962325E-03  0.930207372    
   1.06250000      0.825000048      0.767559886       7.34869018E-03  0.767595053    
   1.06250000      0.875000000      0.579330921       6.61420170E-03  0.579368651    
   1.06250000      0.925000012      0.366408020       4.61252639E-03  0.366437078    
   1.06250000      0.975000024      0.129760265       1.63235178E-03  0.129770532    
   1.06250000       1.00000000       0.00000000       0.00000000       0.00000000    
   1.18750000       0.00000000       0.00000000       0.00000000       0.00000000    
   1.18750000       2.50000004E-02  0.127905309      -2.00596754E-03  0.127921045    
   1.18750000       7.50000030E-02  0.361017734      -5.49256615E-03  0.361059546    
   1.18750000      0.125000000      0.570714474      -7.80852325E-03  0.570767879    
   1.18750000      0.175000012      0.756187677      -8.92348215E-03  0.756240308    
   1.18750000      0.224999994      0.916633427      -9.03040264E-03  0.916677892    
   1.18750000      0.275000006       1.05132747      -8.34094733E-03   1.05136061    
   1.18750000      0.324999988       1.15967655      -7.06576090E-03   1.15969813    
   1.18750000      0.375000000       1.24124146      -5.39420824E-03   1.24125314    
   1.18750000      0.425000012       1.29573178      -3.48055153E-03   1.29573643    
   1.18750000      0.475000024       1.32297945      -1.44063774E-03   1.32298028    
   1.18750000      0.524999976       1.32291079       6.39417442E-04   1.32291090    
   1.18750000      0.575000048       1.29552794       2.68425653E-03   1.29553068    
   1.18750000      0.625000000       1.24091196       4.60707536E-03   1.24092054    
   1.18750000      0.675000012       1.15924048       6.29131915E-03   1.15925753    
   1.18750000      0.725000024       1.05081320       7.58147798E-03   1.05084050    
   1.18750000      0.774999976      0.916078866       8.28680303E-03  0.916116357    
   1.18750000      0.825000048      0.755640566       8.19562376E-03  0.755685031    
   1.18750000      0.875000000      0.570234358       7.09601119E-03  0.570278525    
   1.18750000      0.925000012      0.360674262       4.80438303E-03  0.360706270    
   1.18750000      0.975000024      0.127776653       1.67022459E-03  0.127787575    
   1.18750000       1.00000000       0.00000000       0.00000000       0.00000000    
   1.31250000       0.00000000       0.00000000       0.00000000       0.00000000    
   1.31250000       2.50000004E-02  0.126052529      -2.01820675E-03  0.126068681    
   1.31250000       7.50000030E-02  0.355696380      -5.55934384E-03  0.355739832    
   1.31250000      0.125000000      0.562246084      -7.98525102E-03  0.562302768    
   1.31250000      0.175000012      0.744974136      -9.24584270E-03  0.745031536    
   1.31250000      0.224999994      0.903135777      -9.49838851E-03  0.903185725    
   1.31250000      0.275000006       1.03603244      -8.91255867E-03   1.03607070    
   1.31250000      0.324999988       1.14305568      -7.66225206E-03   1.14308131    
   1.31250000      0.375000000       1.22371793      -5.91633562E-03   1.22373223    
   1.31250000      0.425000012       1.27765965      -3.83163197E-03   1.27766538    
   1.31250000      0.475000024       1.30464995      -1.55115477E-03   1.30465090    
   1.31250000      0.524999976       1.30457664       7.93980318E-04   1.30457687    
   1.31250000      0.575000048       1.27744198       3.07723414E-03   1.27744567    
   1.31250000      0.625000000       1.22336650       5.16713923E-03   1.22337735    
   1.31250000      0.675000012       1.14259243       6.92049740E-03   1.14261341    
   1.31250000      0.725000024       1.03548861       8.17954913E-03   1.03552091    
   1.31250000      0.774999976      0.902552843       8.77469033E-03  0.902595520    
   1.31250000      0.825000048      0.744402528       8.53148848E-03  0.744451404    
   1.31250000      0.875000000      0.561747551       7.28062820E-03  0.561794758    
   1.31250000      0.925000012      0.355341613       4.87452978E-03  0.355375051    
   1.31250000      0.975000024      0.125920072       1.68314355E-03  0.125931323    
   1.31250000       1.00000000       0.00000000       0.00000000       0.00000000    
   1.43750000       0.00000000       0.00000000       0.00000000       0.00000000    
   1.43750000       2.50000004E-02  0.124237537      -2.02087918E-03  0.124253973    
   1.43750000       7.50000030E-02  0.350513875      -5.57765877E-03  0.350558251    
   1.43750000      0.125000000      0.554005325      -8.03989079E-03  0.554063678    
   1.43750000      0.175000012      0.734028339      -9.35295969E-03  0.734087944    
   1.43750000      0.224999994      0.889874399      -9.66164842E-03  0.889926851    
   1.43750000      0.275000006       1.02086639      -9.11864638E-03   1.02090716    
   1.43750000      0.324999988       1.12640059      -7.88160414E-03   1.12642813    
   1.43750000      0.375000000       1.20597744      -6.10988215E-03   1.20599294    
   1.43750000      0.425000012       1.25921488      -3.96062247E-03   1.25922108    
   1.43750000      0.475000024       1.28585887      -1.58685877E-03   1.28585982    
   1.43750000      0.524999976       1.28578281       8.61766282E-04   1.28578305    
   1.43750000      0.575000048       1.25898957       3.23691382E-03   1.25899374    
   1.43750000      0.625000000       1.20561409       5.38881589E-03   1.20562613    
   1.43750000      0.675000012       1.12592316       7.16395024E-03   1.12594593    
   1.43750000      0.725000024       1.02030790       8.40479508E-03   1.02034259    
   1.43750000      0.774999976      0.889277756       8.95195827E-03  0.889322817    
   1.43750000      0.825000048      0.733445644       8.64777900E-03  0.733496666    
   1.43750000      0.875000000      0.553498745       7.34050153E-03  0.553547442    
   1.43750000      0.925000012      0.350154459       4.89513390E-03  0.350188673    
   1.43750000      0.975000024      0.124103144       1.68632797E-03  0.124114603    
   1.43750000       1.00000000       0.00000000       0.00000000       0.00000000    
   1.56250000       0.00000000       0.00000000       0.00000000       0.00000000    
   1.56250000       2.50000004E-02  0.122427717      -2.02042912E-03  0.122444391    
   1.56250000       7.50000030E-02  0.345368534      -5.57884388E-03  0.345413595    
   1.56250000      0.125000000      0.545837164      -8.04902799E-03  0.545896471    
   1.56250000      0.175000012      0.723177016      -9.37677361E-03  0.723237813    
   1.56250000      0.224999994      0.876703024      -9.70341079E-03  0.876756728    
   1.56250000      0.275000006       1.00575519      -9.17574205E-03   1.00579703    
   1.56250000      0.324999988       1.10974026      -7.94531964E-03   1.10976875    
   1.56250000      0.375000000       1.18816113      -6.16713241E-03   1.18817711    
   1.56250000      0.425000012       1.24063253      -3.99749726E-03   1.24063897    
   1.56250000      0.475000024       1.26689458      -1.59289897E-03   1.26689553    
   1.56250000      0.524999976       1.26681733       8.90025636E-04   1.26681769    
   1.56250000      0.575000048       1.24040413       3.29480250E-03   1.24040854    
   1.56250000      0.625000000       1.18779373       5.46506606E-03   1.18780637    
   1.56250000      0.675000012       1.10925817       7.24390242E-03   1.10928178    
   1.56250000      0.725000024       1.00519264       8.47483240E-03   1.00522828    
   1.56250000      0.774999976      0.876103401       9.00315121E-03  0.876149654    
   1.56250000      0.825000048      0.722593307       8.67771916E-03  0.722645402    
   1.56250000      0.875000000      0.545330763       7.35293608E-03  0.545380294    
   1.56250000      0.925000012      0.345010042       4.89764381E-03  0.345044792    
   1.56250000      0.975000024      0.122293994       1.68620260E-03  0.122305617    
   1.56250000       1.00000000       0.00000000       0.00000000       0.00000000    
   1.68750000       0.00000000       0.00000000       0.00000000       0.00000000    
   1.68750000       2.50000004E-02  0.120613255      -2.01943982E-03  0.120630160    
   1.68750000       7.50000030E-02  0.340224326      -5.57567971E-03  0.340270013    
   1.68750000      0.125000000      0.537682474      -8.04436952E-03  0.537742615    
   1.68750000      0.175000012      0.712350309      -9.37314704E-03  0.712411940    
   1.68750000      0.224999994      0.863559604      -9.70320217E-03  0.863614142    
   1.68750000      0.275000006      0.990664363      -9.17974487E-03  0.990706921    
   1.68750000      0.324999988       1.09308267      -7.95236230E-03   1.09311152    
   1.68750000      0.375000000       1.17032456      -6.17412198E-03   1.17034090    
   1.68750000      0.425000012       1.22200894      -4.00072662E-03   1.22201550    
   1.68750000      0.475000024       1.24787688      -1.58950698E-03   1.24787784    
   1.68750000      0.524999976       1.24779987       9.00905929E-04   1.24780023    
   1.68750000      0.575000048       1.22178102       3.31165129E-03   1.22178555    
   1.68750000      0.625000000       1.16995823       5.48427552E-03   1.16997111    
   1.68750000      0.675000012       1.09260249       7.26112444E-03   1.09262657    
   1.68750000      0.725000024      0.990104675       8.48664157E-03  0.990141034    
   1.68750000      0.774999976      0.862963974       9.00841877E-03  0.863010943    
   1.68750000      0.825000048      0.711771488       8.67763534E-03  0.711824417    
   1.68750000      0.875000000      0.537181377       7.35002756E-03  0.537231624    
   1.68750000      0.925000012      0.339870453       4.89483820E-03  0.339905709    
   1.68750000      0.975000024      0.120481774       1.68517453E-03  0.120493561    
   1.68750000       1.00000000       0.00000000       0.00000000       0.00000000    
   1.81250000       0.00000000       0.00000000       0.00000000       0.00000000    
   1.81250000       2.50000004E-02  0.118793584      -2.01845798E-03  0.118810736    
   1.81250000       7.50000030E-02  0.335072637      -5.57200983E-03  0.335118949    
   1.81250000      0.125000000      0.529523313      -8.03757645E-03  0.529584348    
   1.81250000      0.175000012      0.701524377      -9.36396141E-03  0.701586843    
   1.81250000      0.224999994      0.850421071      -9.69291385E-03  0.850476325    
   1.81250000      0.275000006      0.975579739      -9.16966237E-03  0.975622833    
   1.81250000      0.324999988       1.07642889      -7.94347282E-03   1.07645822    
   1.81250000      0.375000000       1.15248704      -6.16677292E-03   1.15250349    
   1.81250000      0.425000012       1.20337915      -3.99464229E-03   1.20338583    
   1.81250000      0.475000024       1.22885036      -1.58473616E-03   1.22885132    
   1.81250000      0.524999976       1.22877431       9.04309738E-04   1.22877467    
   1.81250000      0.575000048       1.20315361       3.31339752E-03   1.20315814    
   1.81250000      0.625000000       1.15212488       5.48361382E-03   1.15213788    
   1.81250000      0.675000012       1.07595444       7.25782290E-03   1.07597899    
   1.81250000      0.725000024      0.975027263       8.48109648E-03  0.975064158    
   1.81250000      0.774999976      0.849833727       9.00133140E-03  0.849881411    