 TITLE= "TESTPLOT" 
 VARIABLES="x","y","fx","fy","magf" 
 ZONE T="1", I=          81 , J=          21
   0.00000000       0.00000000       1.00000000       0.00000000       1.00000000    
   0.00000000       2.50000004E-02   1.00000000       0.00000000       1.00000000    
   0.00000000       7.50000030E-02   1.00000000       0.00000000       1.00000000    
   0.00000000      0.125000000       1.00000000       0.00000000       1.00000000    
   0.00000000      0.175000012       1.00000000       0.00000000       1.00000000    
   0.00000000      0.224999994       1.00000000       0.00000000       1.00000000    
   0.00000000      0.275000006       1.00000000       0.00000000       1.00000000    
   0.00000000      0.324999988       1.00000000       0.00000000       1.00000000    
   0.00000000      0.375000000       1.00000000       0.00000000       1.00000000    
   0.00000000      0.425000012       1.00000000       0.00000000       1.00000000    
   0.00000000      0.475000024       1.00000000       0.00000000       1.00000000    
   0.00000000      0.524999976       1.00000000       0.00000000       1.00000000    
   0.00000000      0.575000048       1.00000000       0.00000000       1.00000000    
   0.00000000      0.625000000       1.00000000       0.00000000       1.00000000    
   0.00000000      0.675000012       1.00000000       0.00000000       1.00000000    
   0.00000000      0.725000024       1.00000000       0.00000000       1.00000000    
   0.00000000      0.774999976       1.00000000       0.00000000       1.00000000    
   0.00000000      0.825000048       1.00000000       0.00000000       1.00000000    
   0.00000000      0.875000000       1.00000000       0.00000000       1.00000000    
   0.00000000      0.925000012       1.00000000       0.00000000       1.00000000    
   0.00000000      0.975000024       1.00000000       0.00000000       1.00000000    
   0.00000000       1.00000000       1.00000000       0.00000000       1.00000000    
   6.25000000E-02   0.00000000      0.500000000       0.00000000      0.500000000    
   6.25000000E-02   2.50000004E-02  0.716381371      0.111084245      0.724942744    
   6.25000000E-02   7.50000030E-02  0.919972062      0.251638293      0.953766406    
   6.25000000E-02  0.125000000       1.01073050      0.274278581       1.04728448    
   6.25000000E-02  0.175000012       1.04560196      0.246672481       1.07430470    
   6.25000000E-02  0.224999994       1.05378962      0.201845169       1.07294643    
   6.25000000E-02  0.275000006       1.05049431      0.155061781       1.06187689    
   6.25000000E-02  0.324999988       1.04348922      0.112398297       1.04952514    
   6.25000000E-02  0.375000000       1.03656054       7.53083751E-02   1.03929257    
   6.25000000E-02  0.425000012       1.03141356       4.30487320E-02   1.03231156    
   6.25000000E-02  0.475000024       1.02873194       1.39202010E-02   1.02882612    
   6.25000000E-02  0.524999976       1.02873850      -1.41382758E-02   1.02883565    
   6.25000000E-02  0.575000048       1.03143191      -4.32762839E-02   1.03233933    
   6.25000000E-02  0.625000000       1.03659141      -7.55550340E-02   1.03934133    
   6.25000000E-02  0.675000012       1.04353452     -0.112674870       1.04959989    
   6.25000000E-02  0.725000024       1.05055666     -0.155380860       1.06198514    
   6.25000000E-02  0.774999976       1.05386829     -0.202220082       1.07309425    
   6.25000000E-02  0.825000048       1.04569530     -0.247114703       1.07449722    
   6.25000000E-02  0.875000000       1.01083302     -0.274795890       1.04751909    
   6.25000000E-02  0.925000012      0.920070171     -0.252220899      0.954014957    
   6.25000000E-02  0.975000024      0.716450930     -0.111388728      0.725058138    
   6.25000000E-02   1.00000000      0.500000000       0.00000000      0.500000000    
  0.187500000       0.00000000       0.00000000       0.00000000       0.00000000    
  0.187500000       2.50000004E-02  0.338618994       3.52738649E-02  0.340451270    
  0.187500000       7.50000030E-02  0.729765654      0.112051934      0.738318086    
  0.187500000      0.125000000      0.947877944      0.180425331      0.964896858    
  0.187500000      0.175000012       1.06122231      0.216724128       1.08312607    
  0.187500000      0.224999994       1.11299765      0.221424282       1.13480949    
  0.187500000      0.275000006       1.13064241      0.202271253       1.14859307    
  0.187500000      0.324999988       1.13128495      0.167563379       1.14362717    
  0.187500000      0.375000000       1.12529659      0.123847120       1.13209116    
  0.187500000      0.425000012       1.11869228       7.55071640E-02   1.12123764    
  0.187500000      0.475000024       1.11470258       2.51416434E-02   1.11498606    
  0.187500000      0.524999976       1.11472166      -2.57757530E-02   1.11501956    
  0.187500000      0.575000048       1.11874688      -7.61507228E-02   1.12133563    
  0.187500000      0.625000000       1.12538600     -0.124508619       1.13225269    
  0.187500000      0.675000012       1.13140845     -0.168248981       1.14384997    
  0.187500000      0.725000024       1.13079858     -0.202982485       1.14887226    
  0.187500000      0.774999976       1.11317873     -0.222157419       1.13513029    
  0.187500000      0.825000048       1.06141889     -0.217470020       1.08346820    
  0.187500000      0.875000000      0.948073745     -0.181169033      0.965228498    
  0.187500000      0.925000012      0.729935586     -0.112767234      0.738594890    
  0.187500000      0.975000024      0.338728040      -3.56200151E-02  0.340595752    
  0.187500000       1.00000000       0.00000000       0.00000000       0.00000000    
  0.312500000       0.00000000       0.00000000       0.00000000       0.00000000    
  0.312500000       2.50000004E-02  0.212850645       1.02660423E-02  0.213098079    
  0.312500000       7.50000030E-02  0.558438003       4.24243882E-02  0.560047150    
  0.312500000      0.125000000      0.813188553       8.61945897E-02  0.817743897    
  0.312500000      0.175000012      0.987256050      0.123103425      0.994901478    
  0.312500000      0.224999994       1.09791744      0.143771216       1.10729086    
  0.312500000      0.275000006       1.16287518      0.145814225       1.17198145    
  0.312500000      0.324999988       1.19742584      0.130924627       1.20456207    
  0.312500000      0.375000000       1.21353030      0.102643430       1.21786344    
  0.312500000      0.425000012       1.21976137       6.50143921E-02   1.22149277    
  0.312500000      0.475000024       1.22157192       2.19565202E-02   1.22176921    
  0.312500000      0.524999976       1.22159624      -2.28719655E-02   1.22181034    
  0.312500000      0.575000048       1.21983147      -6.59288913E-02   1.22161186    
  0.312500000      0.625000000       1.21364033     -0.103554294       1.21805024    
  0.312500000      0.675000012       1.19756806     -0.131826952       1.20480192    
  0.312500000      0.725000024       1.16303825     -0.146700501       1.17225385    
  0.312500000      0.774999976       1.09808588     -0.144631863       1.10756981    
  0.312500000      0.825000048      0.987414002     -0.123928234      0.995160639    
  0.312500000      0.875000000      0.813320577      -8.69744942E-02  0.817957759    
  0.312500000      0.925000012      0.558532417      -4.31471914E-02  0.560196519    
  0.312500000      0.975000024      0.212902889      -1.06111215E-02  0.213167161    
  0.312500000       1.00000000       0.00000000       0.00000000       0.00000000    
  0.437500000       0.00000000       0.00000000       0.00000000       0.00000000    
  0.437500000       2.50000004E-02  0.168335110       2.77204532E-03  0.168357924    
  0.437500000       7.50000030E-02  0.466688305       1.52167669E-02  0.466936320    
  0.437500000      0.125000000      0.715141535       3.71012241E-02  0.716103256    
  0.437500000      0.175000012      0.910248756       5.99591881E-02  0.912221432    
  0.437500000      0.224999994       1.05521512       7.69243166E-02   1.05801523    
  0.437500000      0.275000006       1.15724492       8.39648321E-02   1.16028690    
  0.437500000      0.324999988       1.22512317       7.97792077E-02   1.22771800    
  0.437500000      0.375000000       1.26742792       6.51743636E-02   1.26910257    
  0.437500000      0.425000012       1.29135466       4.23593521E-02   1.29204917    
  0.437500000      0.475000024       1.30201077       1.43572912E-02   1.30208993    
  0.437500000      0.524999976       1.30202746      -1.54096661E-02   1.30211866    
  0.437500000      0.575000048       1.29140222      -4.34015058E-02   1.29213142    
  0.437500000      0.625000000       1.26749730      -6.61952719E-02   1.26922464    
  0.437500000      0.675000012       1.22520375      -8.07678476E-02   1.22786307    
  0.437500000      0.725000024       1.15732384      -8.49106908E-02   1.16043448    
  0.437500000      0.774999976       1.05527925      -7.78184682E-02   1.05814457    
  0.437500000      0.825000048      0.910287738      -6.07964620E-02  0.912315726    
  0.437500000      0.875000000      0.715153992      -3.78809348E-02  0.716156542    
  0.437500000      0.925000012      0.466684937      -1.59356799E-02  0.466956943    
  0.437500000      0.975000024      0.168339431      -3.11530544E-03  0.168368250    
  0.437500000       1.00000000       0.00000000       0.00000000       0.00000000    
  0.562500000       0.00000000       0.00000000       0.00000000       0.00000000    
  0.562500000       2.50000004E-02  0.149405256       3.15054276E-05  0.149405256    
  0.562500000       7.50000030E-02  0.420389384       3.77431605E-03  0.420406342    
  0.562500000      0.125000000      0.657208860       1.33174509E-02  0.657343745    
  0.562500000      0.175000012      0.855938673       2.51008812E-02  0.856306672    
  0.562500000      0.224999994       1.01577866       3.53826955E-02   1.01639473    
  0.562500000      0.275000006       1.13874495       4.12668437E-02   1.13949239    
  0.562500000      0.324999988       1.22877669       4.11427990E-02   1.22946525    
  0.562500000      0.375000000       1.29064226       3.47531512E-02   1.29111004    
  0.562500000      0.425000012       1.32890284       2.30162609E-02   1.32910216    
  0.562500000      0.475000024       1.34708250       7.72375101E-03   1.34710467    
  0.562500000      0.524999976       1.34708381      -8.80718883E-03   1.34711266    
  0.562500000      0.575000048       1.32890272      -2.40848586E-02   1.32912099    
  0.562500000      0.625000000       1.29063296      -3.57926488E-02   1.29112923    
  0.562500000      0.675000012       1.22875071      -4.21411470E-02   1.22947311    
  0.562500000      0.725000024       1.13869488      -4.22139242E-02   1.13947713    
  0.562500000      0.774999976       1.01570094      -3.62716690E-02   1.01634836    
  0.562500000      0.825000048      0.855835438      -2.59299912E-02  0.856228173    
  0.562500000      0.875000000      0.657094717      -1.40891988E-02  0.657245755    
  0.562500000      0.925000012      0.420294046      -4.48776037E-03  0.420318007    
  0.562500000      0.975000024      0.149370998      -3.72873852E-04  0.149371460    
  0.562500000       1.00000000       0.00000000       0.00000000       0.00000000    
  0.687500000       0.00000000       0.00000000       0.00000000       0.00000000    
  0.687500000       2.50000004E-02  0.140228570      -1.12925458E-03  0.140233114    
  0.687500000       7.50000030E-02  0.396090448      -1.38654490E-03  0.396092862    
  0.687500000      0.125000000      0.623926997       1.83649559E-03  0.623929679    
  0.687500000      0.175000012      0.821012378       7.07980944E-03  0.821042895    
  0.687500000      0.224999994      0.985918343       1.24606322E-02  0.985997081    
  0.687500000      0.275000006       1.11871028       1.62843205E-02   1.11882877    
  0.687500000      0.324999988       1.22075140       1.73832104E-02   1.22087514    
  0.687500000      0.375000000       1.29422259       1.53025072E-02   1.29431307    
  0.687500000      0.425000012       1.34150338       1.03193242E-02   1.34154308    
  0.687500000      0.475000024       1.36457705       3.32651567E-03   1.36458111    
  0.687500000      0.524999976       1.36455953      -4.37798398E-03   1.36456656    
  0.687500000      0.575000048       1.34144735      -1.13560511E-02   1.34149539    
  0.687500000      0.625000000       1.29412460      -1.63108148E-02   1.29422736    
  0.687500000      0.675000012       1.22061014      -1.83512010E-02   1.22074807    
  0.687500000      0.725000024       1.11852622      -1.72030851E-02   1.11865854    
  0.687500000      0.774999976      0.985699177      -1.33254826E-02  0.985789239    
  0.687500000      0.825000048      0.820773721      -7.89060909E-03  0.820811689    
  0.687500000      0.875000000      0.623698473      -2.59693549E-03  0.623703897    
  0.687500000      0.925000012      0.395915508       6.78048586E-04  0.395916075    
  0.687500000      0.975000024      0.140163079       7.89024110E-04  0.140165299    
  0.687500000       1.00000000       0.00000000       0.00000000       0.00000000    
  0.812500000       0.00000000       0.00000000       0.00000000       0.00000000    
  0.812500000       2.50000004E-02  0.135243431      -1.64544524E-03  0.135253444    
  0.812500000       7.50000030E-02  0.382246882      -3.76164587E-03  0.382265389    
  0.812500000      0.125000000      0.603766203      -3.64856282E-03  0.603777230    
  0.812500000      0.175000012      0.797984064      -1.87225011E-03  0.797986269    
  0.812500000      0.224999994      0.963612437       6.28992100E-04  0.963612676    
  0.812500000      0.275000006       1.10009074       2.92572170E-03   1.10009468    
  0.812500000      0.324999988       1.20759416       4.28789761E-03   1.20760179    
  0.812500000      0.375000000       1.28686500       4.32475051E-03   1.28687227    
  0.812500000      0.425000012       1.33890724       3.04003689E-03   1.33891070    
  0.812500000      0.475000024       1.36463928       7.97545945E-04   1.36463952    
  0.812500000      0.524999976       1.36460304      -1.78917055E-03   1.36460423    
  0.812500000      0.575000048       1.33879876      -4.01843712E-03   1.33880472    
  0.812500000      0.625000000       1.28668571      -5.27807605E-03   1.28669655    
  0.812500000      0.675000012       1.20734811      -5.20603172E-03   1.20735931    
  0.812500000      0.725000024       1.09978771      -3.80223827E-03   1.09979427    
  0.812500000      0.774999976      0.963270783      -1.46160496E-03  0.963271916    
  0.812500000      0.825000048      0.797630787       1.08331500E-03  0.797631502    
  0.812500000      0.875000000      0.603442311       2.90074688E-03  0.603449285    
  0.812500000      0.925000012      0.382006884       3.05822631E-03  0.382019132    
  0.812500000      0.975000024      0.135152906       1.30617886E-03  0.135159209    
  0.812500000       1.00000000       0.00000000       0.00000000       0.00000000    
  0.937500000       0.00000000       0.00000000       0.00000000       0.00000000    
  0.937500000       2.50000004E-02  0.132117301      -1.87285908E-03  0.132130578    
  0.937500000       7.50000030E-02  0.373312593      -4.83712833E-03  0.373343915    
  0.937500000      0.125000000      0.590161562      -6.19976828E-03  0.590194166    
  0.937500000      0.175000012      0.781376183      -6.14677463E-03  0.781400383    
  0.937500000      0.224999994      0.945885777      -5.16580464E-03  0.945899904    
  0.937500000      0.275000006       1.08296514      -3.77151184E-03   1.08297169    
  0.937500000      0.324999988       1.19228542      -2.40963954E-03   1.19228792    
  0.937500000      0.375000000       1.27387476      -1.37641374E-03   1.27387547    
  0.937500000      0.425000012       1.32798362      -7.75498804E-04   1.32798386    
  0.937500000      0.475000024       1.35491335      -5.22835297E-04   1.35491347    
  0.937500000      0.524999976       1.35486209      -3.98749253E-04   1.35486209    
  0.937500000      0.575000048       1.32783198      -1.35712515E-04   1.32783198    
  0.937500000      0.625000000       1.27362883       4.83972282E-04   1.27362895    
  0.937500000      0.675000012       1.19195473       1.54322782E-03   1.19195569    
  0.937500000      0.725000024       1.08256698       2.93686427E-03   1.08257091    
  0.937500000      0.774999976      0.945447564       4.36545536E-03  0.945457637    
  0.937500000      0.825000048      0.780933738       5.38025703E-03  0.780952275    
  0.937500000      0.875000000      0.589764059       5.46494219E-03  0.589789391    
  0.937500000      0.925000012      0.373023152       4.13941173E-03  0.373046130    
  0.937500000      0.975000024      0.132008269       1.53493683E-03  0.132017195    
  0.937500000       1.00000000       0.00000000       0.00000000       0.00000000    
   1.06250000       0.00000000       0.00000000       0.00000000       0.00000000    
   1.06250000       2.50000004E-02  0.129799426      -1.96899776E-03  0.129814357    
   1.06250000       7.50000030E-02  0.366615295      -5.30374330E-03  0.366653651    
   1.06250000      0.125000000      0.579676569      -7.33412942E-03  0.579722941    
   1.06250000      0.175000012      0.767979741      -8.09083320E-03  0.768022358    
   1.06250000      0.224999994      0.930611789      -7.85518065E-03  0.930644929    
   1.06250000      0.275000006       1.06682849      -6.93554897E-03   1.06685102    
   1.06250000      0.324999988       1.17610645      -5.62114362E-03   1.17611992    
   1.06250000      0.375000000       1.25814605      -4.14014608E-03   1.25815284    
   1.06250000      0.425000012       1.31282544      -2.63491296E-03   1.31282806    
   1.06250000      0.475000024       1.34012663      -1.15886179E-03   1.34012711    
   1.06250000      0.524999976       1.34006500       3.01861844E-04   1.34006500    
   1.06250000      0.575000048       1.31264222       1.78547576E-03   1.31264341    
   1.06250000      0.625000000       1.25785029       3.30443354E-03   1.25785458    
   1.06250000      0.675000012       1.17571282       4.80458792E-03   1.17572260    
   1.06250000      0.725000024       1.06636071       6.14188705E-03   1.06637836    
   1.06250000      0.774999976      0.930102706       7.08541973E-03  0.930129647    
   1.06250000      0.825000048      0.767473042       7.34482799E-03  0.767508209    
   1.06250000      0.875000000      0.579227686       6.61129318E-03  0.579265416    
   1.06250000      0.925000012      0.366292119       4.61102184E-03  0.366321146    
   1.06250000      0.975000024      0.129678279       1.63202407E-03  0.129688546    
   1.06250000       1.00000000       0.00000000       0.00000000       0.00000000    
   1.18750000       0.00000000       0.00000000       0.00000000       0.00000000    
   1.18750000       2.50000004E-02  0.127813354      -2.00554123E-03  0.127829090    
   1.18750000       7.50000030E-02  0.360888541      -5.49088884E-03  0.360930324    
   1.18750000      0.125000000      0.570600450      -7.80542381E-03  0.570653856    
   1.18750000      0.175000012      0.756092548      -8.91955383E-03  0.756145179    
   1.18750000      0.224999994      0.916548669      -9.02667828E-03  0.916593134    
   1.18750000      0.275000006       1.05124545      -8.33803788E-03   1.05127847    
   1.18750000      0.324999988       1.15959406      -7.06364028E-03   1.15961564    
   1.18750000      0.375000000       1.24115765      -5.39276889E-03   1.24116933    
   1.18750000      0.425000012       1.29564703      -3.47973686E-03   1.29565167    
   1.18750000      0.475000024       1.32289386      -1.44039351E-03   1.32289457    
   1.18750000      0.524999976       1.32282519       6.39250327E-04   1.32282531    
   1.18750000      0.575000048       1.29544210       2.68364092E-03   1.29544485    
   1.18750000      0.625000000       1.24082685       4.60603554E-03   1.24083543    
   1.18750000      0.675000012       1.15915632       6.28972519E-03   1.15917337    
   1.18750000      0.725000024       1.05072904       7.57899648E-03   1.05075645    
   1.18750000      0.774999976      0.915991306       8.28329101E-03  0.916028798    
   1.18750000      0.825000048      0.755542874       8.19161907E-03  0.755587280    
   1.18750000      0.875000000      0.570117831       7.09253922E-03  0.570161939    
   1.18750000      0.925000012      0.360543549       4.80241980E-03  0.360575527    
   1.18750000      0.975000024      0.127684623       1.66974694E-03  0.127695546    
   1.18750000       1.00000000       0.00000000       0.00000000       0.00000000    
   1.31250000       0.00000000       0.00000000       0.00000000       0.00000000    
   1.31250000       2.50000004E-02  0.125950873      -2.01782398E-03  0.125967026    
   1.31250000       7.50000030E-02  0.355553269      -5.55779412E-03  0.355596721    
   1.31250000      0.125000000      0.562119722      -7.98252039E-03  0.562176406    
   1.31250000      0.175000012      0.744868875      -9.24281124E-03  0.744926214    
   1.31250000      0.224999994      0.903041959      -9.49557684E-03  0.903091908    
   1.31250000      0.275000006       1.03594124      -8.91016237E-03   1.03597951    
   1.31250000      0.324999988       1.14296401      -7.66036846E-03   1.14298964    
   1.31250000      0.375000000       1.22362423      -5.91480080E-03   1.22363853    
   1.31250000      0.425000012       1.27756512      -3.83060612E-03   1.27757084    
   1.31250000      0.475000024       1.30455470      -1.55083870E-03   1.30455565    
   1.31250000      0.524999976       1.30448151       7.93682877E-04   1.30448174    
   1.31250000      0.575000048       1.27734685       3.07631958E-03   1.27735054    
   1.31250000      0.625000000       1.22327185       5.16563747E-03   1.22328281    
   1.31250000      0.675000012       1.14249873       6.91872928E-03   1.14251971    
   1.31250000      0.725000024       1.03539491       8.17744341E-03   1.03542721    
   1.31250000      0.774999976      0.902455449       8.77189543E-03  0.902498066    
   1.31250000      0.825000048      0.744294047       8.52839649E-03  0.744342864    
   1.31250000      0.875000000      0.561617851       7.27782492E-03  0.561664999    
   1.31250000      0.925000012      0.355196238       4.87273745E-03  0.355229646    
   1.31250000      0.975000024      0.125817433       1.68263807E-03  0.125828683    
   1.31250000       1.00000000       0.00000000       0.00000000       0.00000000    
   1.43750000       0.00000000       0.00000000       0.00000000       0.00000000    
   1.43750000       2.50000004E-02  0.124125764      -2.02055601E-03  0.124142207    
   1.43750000       7.50000030E-02  0.350356638      -5.57644758E-03  0.350401014    
   1.43750000      0.125000000      0.553866148      -8.03741440E-03  0.553924441    
   1.43750000      0.175000012      0.733912230      -9.34979506E-03  0.733971775    
   1.43750000      0.224999994      0.889770448      -9.65843163E-03  0.889822841    
   1.43750000      0.275000006       1.02076530      -9.11564566E-03   1.02080595    
   1.43750000      0.324999988       1.12629890      -7.87938666E-03   1.12632644    
   1.43750000      0.375000000       1.20587349      -6.10842183E-03   1.20588899    
   1.43750000      0.425000012       1.25910962      -3.95973679E-03   1.25911593    
   1.43750000      0.475000024       1.28575289      -1.58656458E-03   1.28575385    
   1.43750000      0.524999976       1.28567743       8.61637935E-04   1.28567767    
   1.43750000      0.575000048       1.25888431       3.23627656E-03   1.25888848    
   1.43750000      0.625000000       1.20550942       5.38736861E-03   1.20552146    
   1.43750000      0.675000012       1.12581968       7.16174580E-03   1.12584245    
   1.43750000      0.725000024       1.02020454       8.40192102E-03   1.02023911    
   1.43750000      0.774999976      0.889170825       8.94879736E-03  0.889215887    
   1.43750000      0.825000048      0.733326793       8.64464045E-03  0.733377755    
   1.43750000      0.875000000      0.553357124       7.33767124E-03  0.553405762    
   1.43750000      0.925000012      0.349995732       4.89339884E-03  0.350029945    
   1.43750000      0.975000024      0.123990253       1.68582588E-03  0.124001712    
   1.43750000       1.00000000       0.00000000       0.00000000       0.00000000    
   1.56250000       0.00000000       0.00000000       0.00000000       0.00000000    
   1.56250000       2.50000004E-02  0.122305676      -2.02014018E-03  0.122322358    
   1.56250000       7.50000030E-02  0.345197052      -5.57753257E-03  0.345242113    
   1.56250000      0.125000000      0.545685172      -8.04608036E-03  0.545744479    
   1.56250000      0.175000012      0.723050058      -9.37288813E-03  0.723110795    
   1.56250000      0.224999994      0.876589119      -9.69963148E-03  0.876642764    
   1.56250000      0.275000006       1.00564444      -9.17255227E-03   1.00568628    
   1.56250000      0.324999988       1.10962880      -7.94302672E-03   1.10965717    
   1.56250000      0.375000000       1.18804741      -6.16545510E-03   1.18806338    
   1.56250000      0.425000012       1.24051714      -3.99631960E-03   1.24052358    
   1.56250000      0.475000024       1.26677847      -1.59260409E-03   1.26677942    
   1.56250000      0.524999976       1.26670182       8.89644260E-04   1.26670218    
   1.56250000      0.575000048       1.24028897       3.29400576E-03   1.24029338    
   1.56250000      0.625000000       1.18767941       5.46342228E-03   1.18769193    
   1.56250000      0.675000012       1.10914528       7.24145351E-03   1.10916889    
   1.56250000      0.725000024       1.00507998       8.47162679E-03   1.00511563    
   1.56250000      0.774999976      0.875987113       8.99956468E-03  0.876033366    
   1.56250000      0.825000048      0.722463727       8.67435522E-03  0.722515762    
   1.56250000      0.875000000      0.545176625       7.35033210E-03  0.545226157    
   1.56250000      0.925000012      0.344837427       4.89647314E-03  0.344872206    
   1.56250000      0.975000024      0.122171223       1.68599980E-03  0.122182854    
   1.56250000       1.00000000       0.00000000       0.00000000       0.00000000    
   1.68750000       0.00000000       0.00000000       0.00000000       0.00000000    
   1.68750000       2.50000004E-02  0.120482743      -2.01890990E-03  0.120499656    
   1.68750000       7.50000030E-02  0.340040684      -5.57391718E-03  0.340086371    
   1.68750000      0.125000000      0.537519336      -8.04170873E-03  0.537579477    
   1.68750000      0.175000012      0.712214053      -9.37027298E-03  0.712275684    
   1.68750000      0.224999994      0.863437653      -9.70043987E-03  0.863492131    
   1.68750000      0.275000006      0.990546107      -9.17742215E-03  0.990588605    
   1.68750000      0.324999988       1.09296346      -7.95070920E-03   1.09299231    
   1.68750000      0.375000000       1.17020297      -6.17291778E-03   1.17021930    
   1.68750000      0.425000012       1.22188568      -3.99992103E-03   1.22189224    
   1.68750000      0.475000024       1.24775314      -1.58939278E-03   1.24775410    
   1.68750000      0.524999976       1.24767625       9.00579733E-04   1.24767661    
   1.68750000      0.575000048       1.22165763       3.31102964E-03   1.22166216    
   1.68750000      0.625000000       1.16983604       5.48316538E-03   1.16984892    
   1.68750000      0.675000012       1.09248185       7.25974981E-03   1.09250593    
   1.68750000      0.725000024      0.989984274       8.48511979E-03  0.990020633    
   1.68750000      0.774999976      0.862839818       9.00629908E-03  0.862886786    
   1.68750000      0.825000048      0.711632729       8.67490843E-03  0.711685598    
   1.68750000      0.875000000      0.537016273       7.34771369E-03  0.537066519    
   1.68750000      0.925000012      0.339685380       4.89376253E-03  0.339720637    
   1.68750000      0.975000024      0.120350838       1.68497616E-03  0.120362639    
   1.68750000       1.00000000       0.00000000       0.00000000       0.00000000    
   1.81250000       0.00000000       0.00000000       0.00000000       0.00000000    
   1.81250000       2.50000004E-02  0.118655279      -2.01801886E-03  0.118672438    
   1.81250000       7.50000030E-02  0.334877640      -5.57031855E-03  0.334923953    
   1.81250000      0.125000000      0.529349983      -8.03481042E-03  0.529410958    
   1.81250000      0.175000012      0.701379538      -9.36113298E-03  0.701442003    
   1.81250000      0.224999994      0.850291491      -9.69041046E-03  0.850346684    
   1.81250000      0.275000006      0.975454450      -9.16768238E-03  0.975497544    
   1.81250000      0.324999988       1.07630301      -7.94215500E-03   1.07633233    
   1.81250000      0.375000000       1.15235877      -6.16588444E-03   1.15237522    
   1.81250000      0.425000012       1.20324957      -3.99418734E-03   1.20325625    
   1.81250000      0.475000024       1.22872019      -1.58473302E-03   1.22872126    
   1.81250000      0.524999976       1.22864413       9.04004672E-04   1.22864449    
   1.81250000      0.575000048       1.20302355       3.31283687E-03   1.20302808    
   1.81250000      0.625000000       1.15199566       5.48286922E-03   1.15200865    
   1.81250000      0.675000012       1.07582700       7.25692976E-03   1.07585144    
   1.81250000      0.725000024      0.974900007       8.47973488E-03  0.974936903    
   1.81250000      0.774999976      0.849702120       8.99923686E-03  0.849749804    