 TITLE= "TESTPLOT" 
 VARIABLES="x","y","fx","fy","magf" 
 ZONE T="1", I=          81 , J=          21
   0.00000000       0.00000000       1.00000000       0.00000000       1.00000000    
   0.00000000       2.50000004E-02   1.00000000       0.00000000       1.00000000    
   0.00000000       7.50000030E-02   1.00000000       0.00000000       1.00000000    
   0.00000000      0.125000000       1.00000000       0.00000000       1.00000000    
   0.00000000      0.175000012       1.00000000       0.00000000       1.00000000    
   0.00000000      0.224999994       1.00000000       0.00000000       1.00000000    
   0.00000000      0.275000006       1.00000000       0.00000000       1.00000000    
   0.00000000      0.324999988       1.00000000       0.00000000       1.00000000    
   0.00000000      0.375000000       1.00000000       0.00000000       1.00000000    
   0.00000000      0.425000012       1.00000000       0.00000000       1.00000000    
   0.00000000      0.475000024       1.00000000       0.00000000       1.00000000    
   0.00000000      0.524999976       1.00000000       0.00000000       1.00000000    
   0.00000000      0.575000048       1.00000000       0.00000000       1.00000000    
   0.00000000      0.625000000       1.00000000       0.00000000       1.00000000    
   0.00000000      0.675000012       1.00000000       0.00000000       1.00000000    
   0.00000000      0.725000024       1.00000000       0.00000000       1.00000000    
   0.00000000      0.774999976       1.00000000       0.00000000       1.00000000    
   0.00000000      0.825000048       1.00000000       0.00000000       1.00000000    
   0.00000000      0.875000000       1.00000000       0.00000000       1.00000000    
   0.00000000      0.925000012       1.00000000       0.00000000       1.00000000    
   0.00000000      0.975000024       1.00000000       0.00000000       1.00000000    
   0.00000000       1.00000000       1.00000000       0.00000000       1.00000000    
   6.25000000E-02   0.00000000      0.500000000       0.00000000      0.500000000    
   6.25000000E-02   2.50000004E-02  0.716381550      0.111084044      0.724942923    
   6.25000000E-02   7.50000030E-02  0.919972420      0.251637667      0.953766644    
   6.25000000E-02  0.125000000       1.01073050      0.274277568       1.04728425    
   6.25000000E-02  0.175000012       1.04560184      0.246671200       1.07430434    
   6.25000000E-02  0.224999994       1.05378962      0.201843679       1.07294619    
   6.25000000E-02  0.275000006       1.05049419      0.155060112       1.06187654    
   6.25000000E-02  0.324999988       1.04348898      0.112397149       1.04952478    
   6.25000000E-02  0.375000000       1.03656030       7.53080472E-02   1.03929234    
   6.25000000E-02  0.425000012       1.03141379       4.30485383E-02   1.03231180    
   6.25000000E-02  0.475000024       1.02873242       1.39202634E-02   1.02882659    
   6.25000000E-02  0.524999976       1.02873874      -1.41377486E-02   1.02883589    
   6.25000000E-02  0.575000048       1.03143239      -4.32758071E-02   1.03233981    
   6.25000000E-02  0.625000000       1.03659153      -7.55548477E-02   1.03934145    
   6.25000000E-02  0.675000012       1.04353440     -0.112674862       1.04959977    
   6.25000000E-02  0.725000024       1.05055666     -0.155380994       1.06198514    
   6.25000000E-02  0.774999976       1.05386829     -0.202220410       1.07309437    
   6.25000000E-02  0.825000048       1.04569519     -0.247115210       1.07449722    
   6.25000000E-02  0.875000000       1.01083231     -0.274796307       1.04751849    
   6.25000000E-02  0.925000012      0.920069695     -0.252221018      0.954014480    
   6.25000000E-02  0.975000024      0.716450691     -0.111388743      0.725057960    
   6.25000000E-02   1.00000000      0.500000000       0.00000000      0.500000000    
  0.187500000       0.00000000       0.00000000       0.00000000       0.00000000    
  0.187500000       2.50000004E-02  0.338619173       3.52736712E-02  0.340451419    
  0.187500000       7.50000030E-02  0.729766309      0.112051293      0.738318563    
  0.187500000      0.125000000      0.947878122      0.180424184      0.964896798    
  0.187500000      0.175000012       1.06122208      0.216723114       1.08312571    
  0.187500000      0.224999994       1.11299729      0.221423745       1.13480902    
  0.187500000      0.275000006       1.13064194      0.202270776       1.14859247    
  0.187500000      0.324999988       1.13128424      0.167562813       1.14362633    
  0.187500000      0.375000000       1.12529576      0.123846561       1.13209033    
  0.187500000      0.425000012       1.11869240       7.55066723E-02   1.12123775    
  0.187500000      0.475000024       1.11470294       2.51413304E-02   1.11498642    
  0.187500000      0.524999976       1.11472178      -2.57759709E-02   1.11501968    
  0.187500000      0.575000048       1.11874723      -7.61509091E-02   1.12133598    
  0.187500000      0.625000000       1.12538600     -0.124508739       1.13225269    
  0.187500000      0.675000012       1.13140821     -0.168249264       1.14384973    
  0.187500000      0.725000024       1.13079834     -0.202982992       1.14887202    
  0.187500000      0.774999976       1.11317897     -0.222158194       1.13513076    
  0.187500000      0.825000048       1.06141949     -0.217470765       1.08346891    
  0.187500000      0.875000000      0.948073864     -0.181169435      0.965228677    
  0.187500000      0.925000012      0.729935765     -0.112767711      0.738595128    
  0.187500000      0.975000024      0.338727117      -3.56203541E-02  0.340594888    
  0.187500000       1.00000000       0.00000000       0.00000000       0.00000000    
  0.312500000       0.00000000       0.00000000       0.00000000       0.00000000    
  0.312500000       2.50000004E-02  0.212850809       1.02657117E-02  0.213098228    
  0.312500000       7.50000030E-02  0.558438897       4.24233489E-02  0.560047984    
  0.312500000      0.125000000      0.813189268       8.61933082E-02  0.817744493    
  0.312500000      0.175000012      0.987255931      0.123102367      0.994901240    
  0.312500000      0.224999994       1.09791708      0.143770710       1.10729039    
  0.312500000      0.275000006       1.16287470      0.145814329       1.17198098    
  0.312500000      0.324999988       1.19742513      0.130924731       1.20456147    
  0.312500000      0.375000000       1.21352947      0.102643088       1.21786261    
  0.312500000      0.425000012       1.21976089       6.50136769E-02   1.22149229    
  0.312500000      0.475000024       1.22157145       2.19557062E-02   1.22176874    
  0.312500000      0.524999976       1.22159600      -2.28723288E-02   1.22181010    
  0.312500000      0.575000048       1.21983099      -6.59285635E-02   1.22161138    
  0.312500000      0.625000000       1.21363997     -0.103553817       1.21804976    
  0.312500000      0.675000012       1.19756770     -0.131826565       1.20480156    
  0.312500000      0.725000024       1.16303766     -0.146700293       1.17225325    
  0.312500000      0.774999976       1.09808564     -0.144631758       1.10756958    
  0.312500000      0.825000048      0.987414300     -0.123927802      0.995160878    
  0.312500000      0.875000000      0.813321233      -8.69734362E-02  0.817958295    
  0.312500000      0.925000012      0.558533370      -4.31458056E-02  0.560197353    
  0.312500000      0.975000024      0.212903112      -1.06104221E-02  0.213167340    
  0.312500000       1.00000000       0.00000000       0.00000000       0.00000000    
  0.437500000       0.00000000       0.00000000       0.00000000       0.00000000    
  0.437500000       2.50000004E-02  0.168335751       2.77166581E-03  0.168358564    
  0.437500000       7.50000030E-02  0.466689348       1.52157657E-02  0.466937333    
  0.437500000      0.125000000      0.715142250       3.70999277E-02  0.716103911    
  0.437500000      0.175000012      0.910248339       5.99577650E-02  0.912220895    
  0.437500000      0.224999994       1.05521464       7.69233555E-02   1.05801475    
  0.437500000      0.275000006       1.15724444       8.39644969E-02   1.16028643    
  0.437500000      0.324999988       1.22512221       7.97790736E-02   1.22771704    
  0.437500000      0.375000000       1.26742697       6.51743561E-02   1.26910162    
  0.437500000      0.425000012       1.29135382       4.23592664E-02   1.29204834    
  0.437500000      0.475000024       1.30200958       1.43569177E-02   1.30208874    
  0.437500000      0.524999976       1.30202675      -1.54101904E-02   1.30211794    
  0.437500000      0.575000048       1.29140091      -4.34019342E-02   1.29212999    
  0.437500000      0.625000000       1.26749647      -6.61956444E-02   1.26922381    
  0.437500000      0.675000012       1.22520304      -8.07677656E-02   1.22786236    
  0.437500000      0.725000024       1.15732348      -8.49101990E-02   1.16043413    
  0.437500000      0.774999976       1.05527830      -7.78181478E-02   1.05814362    
  0.437500000      0.825000048      0.910286427      -6.07962310E-02  0.912314415    
  0.437500000      0.875000000      0.715153396      -3.78807858E-02  0.716155946    
  0.437500000      0.925000012      0.466685355      -1.59357935E-02  0.466957361    
  0.437500000      0.975000024      0.168340519      -3.11543397E-03  0.168369353    
  0.437500000       1.00000000       0.00000000       0.00000000       0.00000000    
  0.562500000       0.00000000       0.00000000       0.00000000       0.00000000    
  0.562500000       2.50000004E-02  0.149406195       3.12901830E-05  0.149406210    
  0.562500000       7.50000030E-02  0.420391232       3.77390371E-03  0.420408159    
  0.562500000      0.125000000      0.657210290       1.33172320E-02  0.657345176    
  0.562500000      0.175000012      0.855938852       2.51006279E-02  0.856306791    
  0.562500000      0.224999994       1.01577866       3.53826210E-02   1.01639473    
  0.562500000      0.275000006       1.13874435       4.12673801E-02   1.13949192    
  0.562500000      0.324999988       1.22877502       4.11435440E-02   1.22946358    
  0.562500000      0.375000000       1.29064023       3.47539857E-02   1.29110801    
  0.562500000      0.425000012       1.32890105       2.30172351E-02   1.32910037    
  0.562500000      0.475000024       1.34708118       7.72463344E-03   1.34710336    
  0.562500000      0.524999976       1.34708261      -8.80671106E-03   1.34711146    
  0.562500000      0.575000048       1.32890153      -2.40851715E-02   1.32911980    
  0.562500000      0.625000000       1.29063153      -3.57936323E-02   1.29112780    
  0.562500000      0.675000012       1.22875011      -4.21419404E-02   1.22947252    
  0.562500000      0.725000024       1.13869500      -4.22143117E-02   1.13947725    
  0.562500000      0.774999976       1.01570058      -3.62715647E-02   1.01634800    
  0.562500000      0.825000048      0.855834424      -2.59290561E-02  0.856227160    
  0.562500000      0.875000000      0.657094896      -1.40880141E-02  0.657245874    
  0.562500000      0.925000012      0.420295060      -4.48708748E-03  0.420318991    
  0.562500000      0.975000024      0.149371684      -3.72710638E-04  0.149372146    
  0.562500000       1.00000000       0.00000000       0.00000000       0.00000000    
  0.687500000       0.00000000       0.00000000       0.00000000       0.00000000    
  0.687500000       2.50000004E-02  0.140230715      -1.12982944E-03  0.140235260    
  0.687500000       7.50000030E-02  0.396094322      -1.38753280E-03  0.396096736    
  0.687500000      0.125000000      0.623930275       1.83571596E-03  0.623932958    
  0.687500000      0.175000012      0.821013927       7.07902201E-03  0.821044445    
  0.687500000      0.224999994      0.985919118       1.24596953E-02  0.985997856    
  0.687500000      0.275000006       1.11871004       1.62836593E-02   1.11882854    
  0.687500000      0.324999988       1.22075057       1.73834078E-02   1.22087431    
  0.687500000      0.375000000       1.29422069       1.53031629E-02   1.29431117    
  0.687500000      0.425000012       1.34150112       1.03198607E-02   1.34154081    
  0.687500000      0.475000024       1.36457562       3.32681485E-03   1.36457968    
  0.687500000      0.524999976       1.36455846      -4.37791320E-03   1.36456549    
  0.687500000      0.575000048       1.34144676      -1.13561209E-02   1.34149480    
  0.687500000      0.625000000       1.29412341      -1.63105689E-02   1.29422617    
  0.687500000      0.675000012       1.22061038      -1.83505192E-02   1.22074831    
  0.687500000      0.725000024       1.11852646      -1.72022730E-02   1.11865878    
  0.687500000      0.774999976      0.985699534      -1.33246630E-02  0.985789597    
  0.687500000      0.825000048      0.820774138      -7.88943563E-03  0.820812047    
  0.687500000      0.875000000      0.623700440      -2.59541511E-03  0.623705864    
  0.687500000      0.925000012      0.395918369       6.79129327E-04  0.395918936    
  0.687500000      0.975000024      0.140165031       7.89383252E-04  0.140167266    
  0.687500000       1.00000000       0.00000000       0.00000000       0.00000000    
  0.812500000       0.00000000       0.00000000       0.00000000       0.00000000    
  0.812500000       2.50000004E-02  0.135247424      -1.64571789E-03  0.135257438    
  0.812500000       7.50000030E-02  0.382252455      -3.76241421E-03  0.382270962    
  0.812500000      0.125000000      0.603770256      -3.64959333E-03  0.603781283    
  0.812500000      0.175000012      0.797986150      -1.87337759E-03  0.797988355    
  0.812500000      0.224999994      0.963613749       6.27740053E-04  0.963613927    
  0.812500000      0.275000006       1.10009146       2.92436546E-03   1.10009539    
  0.812500000      0.324999988       1.20759439       4.28713625E-03   1.20760202    
  0.812500000      0.375000000       1.28686404       4.32501407E-03   1.28687131    
  0.812500000      0.425000012       1.33890605       3.04055493E-03   1.33890951    
  0.812500000      0.475000024       1.36463833       7.97981222E-04   1.36463857    
  0.812500000      0.524999976       1.36460233      -1.78876240E-03   1.36460352    
  0.812500000      0.575000048       1.33879876      -4.01828950E-03   1.33880472    
  0.812500000      0.625000000       1.28668535      -5.27814869E-03   1.28669620    
  0.812500000      0.675000012       1.20734918      -5.20607829E-03   1.20736039    
  0.812500000      0.725000024       1.09978867      -3.80235724E-03   1.09979522    
  0.812500000      0.774999976      0.963271797      -1.46129273E-03  0.963272929    
  0.812500000      0.825000048      0.797632337       1.08436402E-03  0.797633111    
  0.812500000      0.875000000      0.603445768       2.90194666E-03  0.603452742    
  0.812500000      0.925000012      0.382011890       3.05912178E-03  0.382024139    
  0.812500000      0.975000024      0.135156870       1.30648282E-03  0.135163188    
  0.812500000       1.00000000       0.00000000       0.00000000       0.00000000    
  0.937500000       0.00000000       0.00000000       0.00000000       0.00000000    
  0.937500000       2.50000004E-02  0.132122099      -1.87281240E-03  0.132135376    
  0.937500000       7.50000030E-02  0.373319358      -4.83712694E-03  0.373350680    
  0.937500000      0.125000000      0.590166450      -6.20001042E-03  0.590198994    
  0.937500000      0.175000012      0.781378865      -6.14721421E-03  0.781403005    
  0.937500000      0.224999994      0.945887446      -5.16618695E-03  0.945901573    
  0.937500000      0.275000006       1.08296621      -3.77174048E-03   1.08297276    
  0.937500000      0.324999988       1.19228625      -2.40976573E-03   1.19228864    
  0.937500000      0.375000000       1.27387476      -1.37670583E-03   1.27387547    
  0.937500000      0.425000012       1.32798338      -7.75882159E-04   1.32798362    
  0.937500000      0.475000024       1.35491264      -5.22980699E-04   1.35491276    
  0.937500000      0.524999976       1.35486197      -3.98704113E-04   1.35486197    
  0.937500000      0.575000048       1.32783329      -1.35712966E-04   1.32783329    
  0.937500000      0.625000000       1.27362967       4.83688578E-04   1.27362978    
  0.937500000      0.675000012       1.19195604       1.54287321E-03   1.19195700    
  0.937500000      0.725000024       1.08256829       2.93681351E-03   1.08257222    
  0.937500000      0.774999976      0.945449233       4.36566072E-03  0.945459306    
  0.937500000      0.825000048      0.780936420       5.38048474E-03  0.780954957    
  0.937500000      0.875000000      0.589768648       5.46513963E-03  0.589793980    
  0.937500000      0.925000012      0.373029709       4.13958216E-03  0.373052686    
  0.937500000      0.975000024      0.132013813       1.53501425E-03  0.132022738    
  0.937500000       1.00000000       0.00000000       0.00000000       0.00000000    
   1.06250000       0.00000000       0.00000000       0.00000000       0.00000000    
   1.06250000       2.50000004E-02  0.129806042      -1.96930580E-03  0.129820988    
   1.06250000       7.50000030E-02  0.366624147      -5.30455774E-03  0.366662532    
   1.06250000      0.125000000      0.579683423      -7.33519532E-03  0.579729795    
   1.06250000      0.175000012      0.767984152      -8.09205230E-03  0.768026769    
   1.06250000      0.224999994      0.930614114      -7.85642117E-03  0.930647254    
   1.06250000      0.275000006       1.06683040      -6.93667866E-03   1.06685293    
   1.06250000      0.324999988       1.17610812      -5.62211033E-03   1.17612159    
   1.06250000      0.375000000       1.25814724      -4.14080732E-03   1.25815403    
   1.06250000      0.425000012       1.31282592      -2.63537606E-03   1.31282854    
   1.06250000      0.475000024       1.34012628      -1.15920976E-03   1.34012675    
   1.06250000      0.524999976       1.34006524       3.01746011E-04   1.34006524    
   1.06250000      0.575000048       1.31264412       1.78567017E-03   1.31264532    
   1.06250000      0.625000000       1.25785172       3.30501539E-03   1.25785613    
   1.06250000      0.675000012       1.17571425       4.80497535E-03   1.17572403    
   1.06250000      0.725000024       1.06636190       6.14167610E-03   1.06637955    
   1.06250000      0.774999976      0.930104971       7.08501274E-03  0.930131972    
   1.06250000      0.825000048      0.767476320       7.34448154E-03  0.767511427    
   1.06250000      0.875000000      0.579233289       6.61096536E-03  0.579271019    
   1.06250000      0.925000012      0.366299659       4.61061113E-03  0.366328686    
   1.06250000      0.975000024      0.129684150       1.63180288E-03  0.129694417    
   1.06250000       1.00000000       0.00000000       0.00000000       0.00000000    
   1.18750000       0.00000000       0.00000000       0.00000000       0.00000000    
   1.18750000       2.50000004E-02  0.127821684      -2.00604019E-03  0.127837420    
   1.18750000       7.50000030E-02  0.360898912      -5.49182761E-03  0.360940695    
   1.18750000      0.125000000      0.570608139      -7.80647993E-03  0.570661545    
   1.18750000      0.175000012      0.756097972      -8.92122090E-03  0.756150603    
   1.18750000      0.224999994      0.916552007      -9.02888365E-03  0.916596472    
   1.18750000      0.275000006       1.05124831      -8.34015757E-03   1.05128133    
   1.18750000      0.324999988       1.15959644      -7.06540747E-03   1.15961790    
   1.18750000      0.375000000       1.24115944      -5.39420685E-03   1.24117112    
   1.18750000      0.425000012       1.29564834      -3.48077342E-03   1.29565299    
   1.18750000      0.475000024       1.32289457      -1.44115207E-03   1.32289529    
   1.18750000      0.524999976       1.32282567       6.38728903E-04   1.32282579    
   1.18750000      0.575000048       1.29544401       2.68370379E-03   1.29544675    
   1.18750000      0.625000000       1.24082875       4.60661063E-03   1.24083734    
   1.18750000      0.675000012       1.15915823       6.29044417E-03   1.15917528    
   1.18750000      0.725000024       1.05073154       7.57960975E-03   1.05075896    
   1.18750000      0.774999976      0.915994525       8.28378089E-03  0.916031957    
   1.18750000      0.825000048      0.755546808       8.19222443E-03  0.755591214    
   1.18750000      0.875000000      0.570124447       7.09336903E-03  0.570168555    
   1.18750000      0.925000012      0.360552639       4.80327383E-03  0.360584617    
   1.18750000      0.975000024      0.127691835       1.67013146E-03  0.127702758    
   1.18750000       1.00000000       0.00000000       0.00000000       0.00000000    
   1.31250000       0.00000000       0.00000000       0.00000000       0.00000000    
   1.31250000       2.50000004E-02  0.125959769      -2.01857556E-03  0.125975952    
   1.31250000       7.50000030E-02  0.355564862      -5.55969356E-03  0.355608314    
   1.31250000      0.125000000      0.562128484      -7.98507035E-03  0.562185168    
   1.31250000      0.175000012      0.744874775      -9.24544688E-03  0.744932115    
   1.31250000      0.224999994      0.903046131      -9.49778687E-03  0.903096080    
   1.31250000      0.275000006       1.03594470      -8.91183503E-03   1.03598297    
   1.31250000      0.324999988       1.14296722      -7.66148325E-03   1.14299285    
   1.31250000      0.375000000       1.22362709      -5.91543596E-03   1.22364140    
   1.31250000      0.425000012       1.27756763      -3.83094745E-03   1.27757335    
   1.31250000      0.475000024       1.30455780      -1.55129423E-03   1.30455875    
   1.31250000      0.524999976       1.30448365       7.93007552E-04   1.30448389    
   1.31250000      0.575000048       1.27734888       3.07596242E-03   1.27735257    
   1.31250000      0.625000000       1.22327447       5.16588520E-03   1.22328544    
   1.31250000      0.675000012       1.14250159       6.91893790E-03   1.14252257    
   1.31250000      0.725000024       1.03539848       8.17747321E-03   1.03543079    
   1.31250000      0.774999976      0.902460337       8.77203606E-03  0.902502954    
   1.31250000      0.825000048      0.744299889       8.52835178E-03  0.744348705    
   1.31250000      0.875000000      0.561626077       7.27758277E-03  0.561673224    
   1.31250000      0.925000012      0.355207384       4.87247529E-03  0.355240792    
   1.31250000      0.975000024      0.125826761       1.68251689E-03  0.125838012    
   1.31250000       1.00000000       0.00000000       0.00000000       0.00000000    
   1.43750000       0.00000000       0.00000000       0.00000000       0.00000000    
   1.43750000       2.50000004E-02  0.124136657      -2.02165032E-03  0.124153115    
   1.43750000       7.50000030E-02  0.350370109      -5.57882199E-03  0.350414515    
   1.43750000      0.125000000      0.553876579      -8.04025773E-03  0.553934932    
   1.43750000      0.175000012      0.733918965      -9.35276877E-03  0.733978570    
   1.43750000      0.224999994      0.889775753      -9.66099836E-03  0.889828205    
   1.43750000      0.275000006       1.02077019      -9.11773928E-03   1.02081084    
   1.43750000      0.324999988       1.12630367      -7.88108073E-03   1.12633121    
   1.43750000      0.375000000       1.20587826      -6.10978249E-03   1.20589375    
   1.43750000      0.425000012       1.25911474      -3.96099687E-03   1.25912094    
   1.43750000      0.475000024       1.28575897      -1.58767879E-03   1.28575993    
   1.43750000      0.524999976       1.28568149       8.61036708E-04   1.28568172    
   1.43750000      0.575000048       1.25888789       3.23613524E-03   1.25889206    
   1.43750000      0.625000000       1.20551360       5.38757956E-03   1.20552564    
   1.43750000      0.675000012       1.12582386       7.16234650E-03   1.12584662    
   1.43750000      0.725000024       1.02020955       8.40273499E-03   1.02024412    
   1.43750000      0.774999976      0.889176726       8.94953310E-03  0.889221787    
   1.43750000      0.825000048      0.733334064       8.64554942E-03  0.733385026    
   1.43750000      0.875000000      0.553367138       7.33845588E-03  0.553415775    
   1.43750000      0.925000012      0.350008667       4.89375973E-03  0.350042880    
   1.43750000      0.975000024      0.124001160       1.68599677E-03  0.124012619    
   1.43750000       1.00000000       0.00000000       0.00000000       0.00000000    
   1.56250000       0.00000000       0.00000000       0.00000000       0.00000000    
   1.56250000       2.50000004E-02  0.122317262      -2.02020141E-03  0.122333944    
   1.56250000       7.50000030E-02  0.345211983      -5.57771418E-03  0.345257044    
   1.56250000      0.125000000      0.545697093      -8.04689061E-03  0.545756400    
   1.56250000      0.175000012      0.723058343      -9.37438011E-03  0.723119080    
   1.56250000      0.224999994      0.876595914      -9.70159192E-03  0.876649618    
   1.56250000      0.275000006       1.00565100      -9.17468406E-03   1.00569284    
   1.56250000      0.324999988       1.10963535      -7.94455316E-03   1.10966372    
   1.56250000      0.375000000       1.18805385      -6.16662018E-03   1.18806982    
   1.56250000      0.425000012       1.24052453      -3.99722112E-03   1.24053097    
   1.56250000      0.475000024       1.26678574      -1.59264973E-03   1.26678669    
   1.56250000      0.524999976       1.26670790       8.89826915E-04   1.26670825    
   1.56250000      0.575000048       1.24029458       3.29404534E-03   1.24029899    
   1.56250000      0.625000000       1.18768477       5.46418689E-03   1.18769729    
   1.56250000      0.675000012       1.10915136       7.24252965E-03   1.10917497    
   1.56250000      0.725000024       1.00508702       8.47261213E-03   1.00512266    
   1.56250000      0.774999976      0.875994444       9.00019985E-03  0.876040697    
   1.56250000      0.825000048      0.722472012       8.67444649E-03  0.722524047    
   1.56250000      0.875000000      0.545188069       7.35005643E-03  0.545237601    
   1.56250000      0.925000012      0.344851971       4.89591900E-03  0.344886720    
   1.56250000      0.975000024      0.122183308       1.68575021E-03  0.122194938    
   1.56250000       1.00000000       0.00000000       0.00000000       0.00000000    
   1.68750000       0.00000000       0.00000000       0.00000000       0.00000000    
   1.68750000       2.50000004E-02  0.120494112      -2.01944821E-03  0.120511033    
   1.68750000       7.50000030E-02  0.340056151      -5.57517447E-03  0.340101868    
   1.68750000      0.125000000      0.537531674      -8.04311875E-03  0.537591875    
   1.68750000      0.175000012      0.712222755      -9.37159918E-03  0.712284386    
   1.68750000      0.224999994      0.863444328      -9.70157422E-03  0.863498807    
   1.68750000      0.275000006      0.990552545      -9.17838141E-03  0.990595043    
   1.68750000      0.324999988       1.09296989      -7.95157626E-03   1.09299874    
   1.68750000      0.375000000       1.17020905      -6.17361907E-03   1.17022538    
   1.68750000      0.425000012       1.22189295      -4.00049007E-03   1.22189951    
   1.68750000      0.475000024       1.24775982      -1.58978568E-03   1.24776077    
   1.68750000      0.524999976       1.24768233       9.00545274E-04   1.24768269    
   1.68750000      0.575000048       1.22166348       3.31119774E-03   1.22166800    
   1.68750000      0.625000000       1.16984153       5.48324268E-03   1.16985440    
   1.68750000      0.675000012       1.09248853       7.25965342E-03   1.09251261    
   1.68750000      0.725000024      0.989991426       8.48507322E-03  0.990027785    
   1.68750000      0.774999976      0.862847567       9.00650397E-03  0.862894595    
   1.68750000      0.825000048      0.711641669       8.67523439E-03  0.711694539    
   1.68750000      0.875000000      0.537028313       7.34785246E-03  0.537078559    
   1.68750000      0.925000012      0.339700729       4.89354366E-03  0.339735955    
   1.68750000      0.975000024      0.120362327       1.68478396E-03  0.120374121    
   1.68750000       1.00000000       0.00000000       0.00000000       0.00000000    
   1.81250000       0.00000000       0.00000000       0.00000000       0.00000000    
   1.81250000       2.50000004E-02  0.118667692      -2.01830035E-03  0.118684858    
   1.81250000       7.50000030E-02  0.334893405      -5.57116931E-03  0.334939748    
   1.81250000      0.125000000      0.529362142      -8.03567097E-03  0.529423118    
   1.81250000      0.175000012      0.701387882      -9.36167687E-03  0.701450348    
   1.81250000      0.224999994      0.850297451      -9.69099440E-03  0.850352705    
   1.81250000      0.275000006      0.975460112      -9.16832872E-03  0.975503206    
   1.81250000      0.324999988       1.07630837      -7.94272684E-03   1.07633770    
   1.81250000      0.375000000       1.15236425      -6.16658013E-03   1.15238070    
   1.81250000      0.425000012       1.20325565      -3.99495196E-03   1.20326233    
   1.81250000      0.475000024       1.22872543      -1.58523710E-03   1.22872651    
   1.81250000      0.524999976       1.22864842       9.03865439E-04   1.22864878    
   1.81250000      0.575000048       1.20302856       3.31300171E-03   1.20303309    
   1.81250000      0.625000000       1.15200090       5.48306108E-03   1.15201402    
   1.81250000      0.675000012       1.07583237       7.25738611E-03   1.07585680    
   1.81250000      0.725000024      0.974905491       8.48075189E-03  0.974942386    
   1.81250000      0.774999976      0.849708736       9.00056213E-03  0.849756420    