 TITLE= "TESTPLOT" 
 VARIABLES="x","y","fx","fy","magf" 
 ZONE T="1", I=          81 , J=          21
   0.00000000       0.00000000       1.00000000       0.00000000       1.00000000    
   0.00000000       2.50000004E-02   1.00000000       0.00000000       1.00000000    
   0.00000000       7.50000030E-02   1.00000000       0.00000000       1.00000000    
   0.00000000      0.125000000       1.00000000       0.00000000       1.00000000    
   0.00000000      0.175000012       1.00000000       0.00000000       1.00000000    
   0.00000000      0.224999994       1.00000000       0.00000000       1.00000000    
   0.00000000      0.275000006       1.00000000       0.00000000       1.00000000    
   0.00000000      0.324999988       1.00000000       0.00000000       1.00000000    
   0.00000000      0.375000000       1.00000000       0.00000000       1.00000000    
   0.00000000      0.425000012       1.00000000       0.00000000       1.00000000    
   0.00000000      0.475000024       1.00000000       0.00000000       1.00000000    
   0.00000000      0.524999976       1.00000000       0.00000000       1.00000000    
   0.00000000      0.575000048       1.00000000       0.00000000       1.00000000    
   0.00000000      0.625000000       1.00000000       0.00000000       1.00000000    
   0.00000000      0.675000012       1.00000000       0.00000000       1.00000000    
   0.00000000      0.725000024       1.00000000       0.00000000       1.00000000    
   0.00000000      0.774999976       1.00000000       0.00000000       1.00000000    
   0.00000000      0.825000048       1.00000000       0.00000000       1.00000000    
   0.00000000      0.875000000       1.00000000       0.00000000       1.00000000    
   0.00000000      0.925000012       1.00000000       0.00000000       1.00000000    
   0.00000000      0.975000024       1.00000000       0.00000000       1.00000000    
   0.00000000       1.00000000       1.00000000       0.00000000       1.00000000    
   6.25000000E-02   0.00000000      0.500000000       0.00000000      0.500000000    
   6.25000000E-02   2.50000004E-02  0.716381431      0.111084104      0.724942744    
   6.25000000E-02   7.50000030E-02  0.919972479      0.251637757      0.953766704    
   6.25000000E-02  0.125000000       1.01073062      0.274277568       1.04728436    
   6.25000000E-02  0.175000012       1.04560161      0.246671349       1.07430422    
   6.25000000E-02  0.224999994       1.05378914      0.201844245       1.07294583    
   6.25000000E-02  0.275000006       1.05049372      0.155061156       1.06187618    
   6.25000000E-02  0.324999988       1.04348850      0.112398081       1.04952443    
   6.25000000E-02  0.375000000       1.03656042       7.53083676E-02   1.03929245    
   6.25000000E-02  0.425000012       1.03141332       4.30487171E-02   1.03231132    
   6.25000000E-02  0.475000024       1.02873182       1.39201451E-02   1.02882600    
   6.25000000E-02  0.524999976       1.02873826      -1.41383279E-02   1.02883542    
   6.25000000E-02  0.575000048       1.03143167      -4.32762168E-02   1.03233922    
   6.25000000E-02  0.625000000       1.03659129      -7.55549073E-02   1.03934121    
   6.25000000E-02  0.675000012       1.04353452     -0.112674803       1.04959989    
   6.25000000E-02  0.725000024       1.05055654     -0.155380830       1.06198502    
   6.25000000E-02  0.774999976       1.05386806     -0.202219993       1.07309401    
   6.25000000E-02  0.825000048       1.04569530     -0.247114599       1.07449722    
   6.25000000E-02  0.875000000       1.01083326     -0.274795949       1.04751921    
   6.25000000E-02  0.925000012      0.920070291     -0.252221107      0.954015136    
   6.25000000E-02  0.975000024      0.716450632     -0.111388840      0.725057900    
   6.25000000E-02   1.00000000      0.500000000       0.00000000      0.500000000    
  0.187500000       0.00000000       0.00000000       0.00000000       0.00000000    
  0.187500000       2.50000004E-02  0.338619351       3.52735333E-02  0.340451598    
  0.187500000       7.50000030E-02  0.729766309      0.112051055      0.738318563    
  0.187500000      0.125000000      0.947878063      0.180424079      0.964896739    
  0.187500000      0.175000012       1.06122148      0.216723084       1.08312511    
  0.187500000      0.224999994       1.11299646      0.221423745       1.13480818    
  0.187500000      0.275000006       1.13064110      0.202270821       1.14859164    
  0.187500000      0.324999988       1.13128376      0.167562768       1.14362586    
  0.187500000      0.375000000       1.12529588      0.123846442       1.13209045    
  0.187500000      0.425000012       1.11869168       7.55065680E-02   1.12123692    
  0.187500000      0.475000024       1.11470222       2.51410827E-02   1.11498570    
  0.187500000      0.524999976       1.11472082      -2.57762484E-02   1.11501884    
  0.187500000      0.575000048       1.11874628      -7.61511326E-02   1.12133503    
  0.187500000      0.625000000       1.12538528     -0.124508888       1.13225198    
  0.187500000      0.675000012       1.13140821     -0.168249130       1.14384973    
  0.187500000      0.725000024       1.13079810     -0.202982560       1.14887178    
  0.187500000      0.774999976       1.11317825     -0.222157389       1.13512981    
  0.187500000      0.825000048       1.06141901     -0.217469841       1.08346820    
  0.187500000      0.875000000      0.948074222     -0.181168750      0.965228915    
  0.187500000      0.925000012      0.729935825     -0.112766922      0.738595068    
  0.187500000      0.975000024      0.338727832      -3.56198736E-02  0.340595543    
  0.187500000       1.00000000       0.00000000       0.00000000       0.00000000    
  0.312500000       0.00000000       0.00000000       0.00000000       0.00000000    
  0.312500000       2.50000004E-02  0.212851107       1.02657843E-02  0.213098526    
  0.312500000       7.50000030E-02  0.558438957       4.24234048E-02  0.560048044    
  0.312500000      0.125000000      0.813189030       8.61932412E-02  0.817744255    
  0.312500000      0.175000012      0.987255752      0.123102054      0.994901001    
  0.312500000      0.224999994       1.09791660      0.143770069       1.10728979    
  0.312500000      0.275000006       1.16287410      0.145813480       1.17198026    
  0.312500000      0.324999988       1.19742465      0.130923972       1.20456088    
  0.312500000      0.375000000       1.21352923      0.102642685       1.21786237    
  0.312500000      0.425000012       1.21976078       6.50133491E-02   1.22149217    
  0.312500000      0.475000024       1.22157145       2.19551641E-02   1.22176874    
  0.312500000      0.524999976       1.22159529      -2.28730477E-02   1.22180939    
  0.312500000      0.575000048       1.21983051      -6.59293011E-02   1.22161090    
  0.312500000      0.625000000       1.21363938     -0.103554435       1.21804929    
  0.312500000      0.675000012       1.19756722     -0.131826892       1.20480108    
  0.312500000      0.725000024       1.16303718     -0.146700174       1.17225277    
  0.312500000      0.774999976       1.09808493     -0.144631356       1.10756886    
  0.312500000      0.825000048      0.987413943     -0.123927698      0.995160520    
  0.312500000      0.875000000      0.813320994      -8.69740695E-02  0.817958117    
  0.312500000      0.925000012      0.558533072      -4.31470573E-02  0.560197175    
  0.312500000      0.975000024      0.212902844      -1.06111523E-02  0.213167116    
  0.312500000       1.00000000       0.00000000       0.00000000       0.00000000    
  0.437500000       0.00000000       0.00000000       0.00000000       0.00000000    
  0.437500000       2.50000004E-02  0.168335244       2.77186441E-03  0.168358058    
  0.437500000       7.50000030E-02  0.466689825       1.52160320E-02  0.466937810    
  0.437500000      0.125000000      0.715142608       3.70998904E-02  0.716104269    
  0.437500000      0.175000012      0.910249174       5.99574149E-02  0.912221730    
  0.437500000      0.224999994       1.05521488       7.69227892E-02   1.05801487    
  0.437500000      0.275000006       1.15724444       8.39638337E-02   1.16028643    
  0.437500000      0.324999988       1.22512197       7.97782466E-02   1.22771680    
  0.437500000      0.375000000       1.26742721       6.51732981E-02   1.26910174    
  0.437500000      0.425000012       1.29135382       4.23583165E-02   1.29204834    
  0.437500000      0.475000024       1.30200994       1.43564679E-02   1.30208910    
  0.437500000      0.524999976       1.30202699      -1.54104363E-02   1.30211818    
  0.437500000      0.575000048       1.29140127      -4.34023440E-02   1.29213035    
  0.437500000      0.625000000       1.26749659      -6.61961734E-02   1.26922393    
  0.437500000      0.675000012       1.22520256      -8.07682276E-02   1.22786188    
  0.437500000      0.725000024       1.15732288      -8.49103928E-02   1.16043353    
  0.437500000      0.774999976       1.05527830      -7.78181255E-02   1.05814362    
  0.437500000      0.825000048      0.910287201      -6.07960373E-02  0.912315190    
  0.437500000      0.875000000      0.715154529      -3.78804281E-02  0.716157079    
  0.437500000      0.925000012      0.466686189      -1.59353688E-02  0.466958165    
  0.437500000      0.975000024      0.168339282      -3.11522651E-03  0.168368101    
  0.437500000       1.00000000       0.00000000       0.00000000       0.00000000    
  0.562500000       0.00000000       0.00000000       0.00000000       0.00000000    
  0.562500000       2.50000004E-02  0.149406210       3.09219577E-05  0.149406210    
  0.562500000       7.50000030E-02  0.420391858       3.77331860E-03  0.420408785    
  0.562500000      0.125000000      0.657211006       1.33169685E-02  0.657345951    
  0.562500000      0.175000012      0.855939984       2.51007937E-02  0.856307924    
  0.562500000      0.224999994       1.01577950       3.53825279E-02   1.01639557    
  0.562500000      0.275000006       1.13874555       4.12664637E-02   1.13949299    
  0.562500000      0.324999988       1.22877634       4.11421731E-02   1.22946489    
  0.562500000      0.375000000       1.29064155       3.47524285E-02   1.29110932    
  0.562500000      0.425000012       1.32890177       2.30155513E-02   1.32910109    
  0.562500000      0.475000024       1.34708142       7.72299943E-03   1.34710360    
  0.562500000      0.524999976       1.34708345      -8.80786031E-03   1.34711230    
  0.562500000      0.575000048       1.32890224      -2.40856037E-02   1.32912052    
  0.562500000      0.625000000       1.29063225      -3.57934088E-02   1.29112852    
  0.562500000      0.675000012       1.22874999      -4.21417505E-02   1.22947240    
  0.562500000      0.725000024       1.13869488      -4.22145911E-02   1.13947713    
  0.562500000      0.774999976       1.01570106      -3.62720490E-02   1.01634848    
  0.562500000      0.825000048      0.855835795      -2.59295925E-02  0.856228471    
  0.562500000      0.875000000      0.657096148      -1.40883503E-02  0.657247186    
  0.562500000      0.925000012      0.420296103      -4.48700599E-03  0.420320034    
  0.562500000      0.975000024      0.149371862      -3.72567360E-04  0.149372339    
  0.562500000       1.00000000       0.00000000       0.00000000       0.00000000    
  0.687500000       0.00000000       0.00000000       0.00000000       0.00000000    
  0.687500000       2.50000004E-02  0.140231326      -1.12954911E-03  0.140235871    
  0.687500000       7.50000030E-02  0.396094978      -1.38695573E-03  0.396097392    
  0.687500000      0.125000000      0.623931289       1.83625682E-03  0.623933971    
  0.687500000      0.175000012      0.821015120       7.07951048E-03  0.821045637    
  0.687500000      0.224999994      0.985920370       1.24602662E-02  0.985999107    
  0.687500000      0.275000006       1.11871159       1.62839480E-02   1.11883008    
  0.687500000      0.324999988       1.22075212       1.73827969E-02   1.22087586    
  0.687500000      0.375000000       1.29422259       1.53018730E-02   1.29431307    
  0.687500000      0.425000012       1.34150290       1.03184935E-02   1.34154260    
  0.687500000      0.475000024       1.36457634       3.32569145E-03   1.36458039    
  0.687500000      0.524999976       1.36455917      -4.37868992E-03   1.36456621    
  0.687500000      0.575000048       1.34144735      -1.13564450E-02   1.34149539    
  0.687500000      0.625000000       1.29412425      -1.63109489E-02   1.29422700    
  0.687500000      0.675000012       1.22061026      -1.83513723E-02   1.22074819    
  0.687500000      0.725000024       1.11852694      -1.72033273E-02   1.11865926    
  0.687500000      0.774999976      0.985700607      -1.33257639E-02  0.985790670    
  0.687500000      0.825000048      0.820775986      -7.89039768E-03  0.820813954    
  0.687500000      0.875000000      0.623701751      -2.59621860E-03  0.623707175    
  0.687500000      0.925000012      0.395919442       6.78420882E-04  0.395920008    
  0.687500000      0.975000024      0.140165329       7.89053971E-04  0.140167549    
  0.687500000       1.00000000       0.00000000       0.00000000       0.00000000    
  0.812500000       0.00000000       0.00000000       0.00000000       0.00000000    
  0.812500000       2.50000004E-02  0.135247499      -1.64558261E-03  0.135257512    
  0.812500000       7.50000030E-02  0.382253289      -3.76199419E-03  0.382271826    
  0.812500000      0.125000000      0.603772044      -3.64898052E-03  0.603783071    
  0.812500000      0.175000012      0.797988057      -1.87270599E-03  0.797990263    
  0.812500000      0.224999994      0.963615417       6.28470560E-04  0.963615596    
  0.812500000      0.275000006       1.10009289       2.92520621E-03   1.10009682    
  0.812500000      0.324999988       1.20759559       4.28745802E-03   1.20760322    
  0.812500000      0.375000000       1.28686595       4.32449952E-03   1.28687322    
  0.812500000      0.425000012       1.33890772       3.03993281E-03   1.33891118    
  0.812500000      0.475000024       1.36463952       7.97440473E-04   1.36463976    
  0.812500000      0.524999976       1.36460340      -1.78926182E-03   1.36460459    
  0.812500000      0.575000048       1.33879948      -4.01856517E-03   1.33880544    
  0.812500000      0.625000000       1.28668666      -5.27837407E-03   1.28669751    
  0.812500000      0.675000012       1.20734978      -5.20649645E-03   1.20736098    
  0.812500000      0.725000024       1.09978986      -3.80286109E-03   1.09979641    
  0.812500000      0.774999976      0.963273883      -1.46192824E-03  0.963275015    
  0.812500000      0.825000048      0.797634840       1.08349056E-03  0.797635615    
  0.812500000      0.875000000      0.603447437       2.90106004E-03  0.603454411    
  0.812500000      0.925000012      0.382012904       3.05853365E-03  0.382025152    
  0.812500000      0.975000024      0.135156468       1.30630855E-03  0.135162771    
  0.812500000       1.00000000       0.00000000       0.00000000       0.00000000    
  0.937500000       0.00000000       0.00000000       0.00000000       0.00000000    
  0.937500000       2.50000004E-02  0.132122472      -1.87286269E-03  0.132135749    
  0.937500000       7.50000030E-02  0.373320103      -4.83712647E-03  0.373351425    
  0.937500000      0.125000000      0.590168357      -6.19976223E-03  0.590200961    
  0.937500000      0.175000012      0.781381488      -6.14686124E-03  0.781405687    
  0.937500000      0.224999994      0.945889950      -5.16600581E-03  0.945904076    
  0.937500000      0.275000006       1.08296824      -3.77177726E-03   1.08297479    
  0.937500000      0.324999988       1.19228792      -2.40996573E-03   1.19229043    
  0.937500000      0.375000000       1.27387667      -1.37682934E-03   1.27387738    
  0.937500000      0.425000012       1.32798517      -7.75980356E-04   1.32798541    
  0.937500000      0.475000024       1.35491467      -5.23275230E-04   1.35491478    
  0.937500000      0.524999976       1.35486364      -3.99076904E-04   1.35486364    
  0.937500000      0.575000048       1.32783389      -1.35910144E-04   1.32783389    
  0.937500000      0.625000000       1.27363122       4.83933080E-04   1.27363133    
  0.937500000      0.675000012       1.19195724       1.54344691E-03   1.19195819    
  0.937500000      0.725000024       1.08256984       2.93692295E-03   1.08257377    
  0.937500000      0.774999976      0.945451498       4.36528120E-03  0.945461571    
  0.937500000      0.825000048      0.780938864       5.38032455E-03  0.780957401    
  0.937500000      0.875000000      0.589770675       5.46511030E-03  0.589796007    
  0.937500000      0.925000012      0.373030543       4.13952488E-03  0.373053491    
  0.937500000      0.975000024      0.132013276       1.53499248E-03  0.132022202    
  0.937500000       1.00000000       0.00000000       0.00000000       0.00000000    
   1.06250000       0.00000000       0.00000000       0.00000000       0.00000000    
   1.06250000       2.50000004E-02  0.129805967      -1.96895679E-03  0.129820898    
   1.06250000       7.50000030E-02  0.366624743      -5.30376937E-03  0.366663098    
   1.06250000      0.125000000      0.579685092      -7.33429287E-03  0.579731464    
   1.06250000      0.175000012      0.767986536      -8.09149351E-03  0.768029153    
   1.06250000      0.224999994      0.930616975      -7.85637554E-03  0.930650175    
   1.06250000      0.275000006       1.06683278      -6.93677599E-03   1.06685531    
   1.06250000      0.324999988       1.17611027      -5.62232593E-03   1.17612374    
   1.06250000      0.375000000       1.25814915      -4.14125714E-03   1.25815594    
   1.06250000      0.425000012       1.31282806      -2.63586547E-03   1.31283069    
   1.06250000      0.475000024       1.34012890      -1.15965435E-03   1.34012938    
   1.06250000      0.524999976       1.34006679       3.01382184E-04   1.34006679    
   1.06250000      0.575000048       1.31264472       1.78542384E-03   1.31264591    
   1.06250000      0.625000000       1.25785315       3.30470596E-03   1.25785756    
   1.06250000      0.675000012       1.17571616       4.80500190E-03   1.17572594    
   1.06250000      0.725000024       1.06636381       6.14228845E-03   1.06638145    
   1.06250000      0.774999976      0.930106997       7.08574243E-03  0.930133998    
   1.06250000      0.825000048      0.767478704       7.34502403E-03  0.767513871    
   1.06250000      0.875000000      0.579235435       6.61139796E-03  0.579273164    
   1.06250000      0.925000012      0.366300851       4.61093336E-03  0.366329879    
   1.06250000      0.975000024      0.129683912       1.63190195E-03  0.129694179    
   1.06250000       1.00000000       0.00000000       0.00000000       0.00000000    
   1.18750000       0.00000000       0.00000000       0.00000000       0.00000000    
   1.18750000       2.50000004E-02  0.127820730      -2.00604252E-03  0.127836466    
   1.18750000       7.50000030E-02  0.360899091      -5.49176428E-03  0.360940874    
   1.18750000      0.125000000      0.570609689      -7.80633651E-03  0.570663095    
   1.18750000      0.175000012      0.756099701      -8.92112870E-03  0.756152332    
   1.18750000      0.224999994      0.916554153      -9.02878214E-03  0.916598618    
   1.18750000      0.275000006       1.05125022      -8.34003743E-03   1.05128324    
   1.18750000      0.324999988       1.15959859      -7.06526684E-03   1.15962017    
   1.18750000      0.375000000       1.24116158      -5.39403316E-03   1.24117327    
   1.18750000      0.425000012       1.29565036      -3.48078692E-03   1.29565501    
   1.18750000      0.475000024       1.32289720      -1.44130690E-03   1.32289791    
   1.18750000      0.524999976       1.32282710       6.38555328E-04   1.32282722    
   1.18750000      0.575000048       1.29544485       2.68328842E-03   1.29544759    
   1.18750000      0.625000000       1.24082994       4.60604206E-03   1.24083853    
   1.18750000      0.675000012       1.15916026       6.29008096E-03   1.15917730    
   1.18750000      0.725000024       1.05073309       7.57948682E-03   1.05076039    
   1.18750000      0.774999976      0.915996671       8.28374177E-03  0.916034102    
   1.18750000      0.825000048      0.755549550       8.19202885E-03  0.755593956    
   1.18750000      0.875000000      0.570126653       7.09288893E-03  0.570170760    
   1.18750000      0.925000012      0.360553741       4.80267871E-03  0.360585719    
   1.18750000      0.975000024      0.127690911       1.66984776E-03  0.127701819    
   1.18750000       1.00000000       0.00000000       0.00000000       0.00000000    
   1.31250000       0.00000000       0.00000000       0.00000000       0.00000000    
   1.31250000       2.50000004E-02  0.125957757      -2.01834389E-03  0.125973925    
   1.31250000       7.50000030E-02  0.355563998      -5.55909146E-03  0.355607450    
   1.31250000      0.125000000      0.562129140      -7.98420515E-03  0.562185824    
   1.31250000      0.175000012      0.744876444      -9.24465060E-03  0.744933844    
   1.31250000      0.224999994      0.903047860      -9.49736498E-03  0.903097808    
   1.31250000      0.275000006       1.03594637      -8.91169626E-03   1.03598464    
   1.31250000      0.324999988       1.14296854      -7.66145531E-03   1.14299417    
   1.31250000      0.375000000       1.22362864      -5.91538148E-03   1.22364295    
   1.31250000      0.425000012       1.27756929      -3.83081613E-03   1.27757502    
   1.31250000      0.475000024       1.30455923      -1.55098201E-03   1.30456007    
   1.31250000      0.524999976       1.30448484       7.93281710E-04   1.30448508    
   1.31250000      0.575000048       1.27735007       3.07582389E-03   1.27735376    
   1.31250000      0.625000000       1.22327542       5.16529009E-03   1.22328627    
   1.31250000      0.675000012       1.14250326       6.91848062E-03   1.14252424    
   1.31250000      0.725000024       1.03540027       8.17724038E-03   1.03543258    
   1.31250000      0.774999976      0.902462006       8.77168216E-03  0.902504623    
   1.31250000      0.825000048      0.744301796       8.52819625E-03  0.744350672    
   1.31250000      0.875000000      0.561627686       7.27767963E-03  0.561674833    
   1.31250000      0.925000012      0.355207473       4.87268530E-03  0.355240881    
   1.31250000      0.975000024      0.125824839       1.68264320E-03  0.125836089    
   1.31250000       1.00000000       0.00000000       0.00000000       0.00000000    
   1.43750000       0.00000000       0.00000000       0.00000000       0.00000000    
   1.43750000       2.50000004E-02  0.124133185      -2.02067755E-03  0.124149628    
   1.43750000       7.50000030E-02  0.350368768      -5.57676097E-03  0.350413144    
   1.43750000      0.125000000      0.553876996      -8.03831778E-03  0.553935289    
   1.43750000      0.175000012      0.733920753      -9.35126003E-03  0.733980298    
   1.43750000      0.224999994      0.889777303      -9.65984259E-03  0.889829755    
   1.43750000      0.275000006       1.02077127      -9.11687966E-03   1.02081192    
   1.43750000      0.324999988       1.12630415      -7.88043253E-03   1.12633169    
   1.43750000      0.375000000       1.20587873      -6.10929541E-03   1.20589423    
   1.43750000      0.425000012       1.25911498      -3.96046927E-03   1.25912118    
   1.43750000      0.475000024       1.28575897      -1.58711534E-03   1.28575993    
   1.43750000      0.524999976       1.28568232       8.61313660E-04   1.28568256    
   1.43750000      0.575000048       1.25888872       3.23612243E-03   1.25889289    
   1.43750000      0.625000000       1.20551419       5.38731553E-03   1.20552623    
   1.43750000      0.675000012       1.12582517       7.16190459E-03   1.12584794    
   1.43750000      0.725000024       1.02021098       8.40234011E-03   1.02024555    
   1.43750000      0.774999976      0.889177978       8.94898735E-03  0.889223039    
   1.43750000      0.825000048      0.733335137       8.64453614E-03  0.733386099    
   1.43750000      0.875000000      0.553367794       7.33764609E-03  0.553416431    
   1.43750000      0.925000012      0.350007951       4.89343097E-03  0.350042164    
   1.43750000      0.975000024      0.123998664       1.68584764E-03  0.124010123    
   1.43750000       1.00000000       0.00000000       0.00000000       0.00000000    
   1.56250000       0.00000000       0.00000000       0.00000000       0.00000000    
   1.56250000       2.50000004E-02  0.122315034      -2.02008570E-03  0.122331716    
   1.56250000       7.50000030E-02  0.345211208      -5.57740871E-03  0.345256269    
   1.56250000      0.125000000      0.545697451      -8.04646779E-03  0.545756757    
   1.56250000      0.175000012      0.723059654      -9.37397219E-03  0.723120451    
   1.56250000      0.224999994      0.876596928      -9.70080681E-03  0.876650631    
   1.56250000      0.275000006       1.00565171      -9.17350221E-03   1.00569355    
   1.56250000      0.324999988       1.10963559      -7.94377457E-03   1.10966396    
   1.56250000      0.375000000       1.18805432      -6.16612192E-03   1.18807030    
   1.56250000      0.425000012       1.24052393      -3.99689050E-03   1.24053037    
   1.56250000      0.475000024       1.26678562      -1.59290340E-03   1.26678658    
   1.56250000      0.524999976       1.26670814       8.89564049E-04   1.26670849    
   1.56250000      0.575000048       1.24029493       3.29395034E-03   1.24029934    
   1.56250000      0.625000000       1.18768561       5.46349213E-03   1.18769813    
   1.56250000      0.675000012       1.10915184       7.24174920E-03   1.10917544    
   1.56250000      0.725000024       1.00508690       8.47232156E-03   1.00512254    
   1.56250000      0.774999976      0.875994563       9.00015049E-03  0.876040816    
   1.56250000      0.825000048      0.722472548       8.67433753E-03  0.722524583    
   1.56250000      0.875000000      0.545188308       7.35007506E-03  0.545237899    
   1.56250000      0.925000012      0.344850898       4.89622168E-03  0.344885677    
   1.56250000      0.975000024      0.122180507       1.68589386E-03  0.122192137    
   1.56250000       1.00000000       0.00000000       0.00000000       0.00000000    
   1.68750000       0.00000000       0.00000000       0.00000000       0.00000000    
   1.68750000       2.50000004E-02  0.120493129      -2.01954180E-03  0.120510049    
   1.68750000       7.50000030E-02  0.340056002      -5.57521265E-03  0.340101689    
   1.68750000      0.125000000      0.537532628      -8.04289058E-03  0.537592828    
   1.68750000      0.175000012      0.712224364      -9.37096216E-03  0.712285995    
   1.68750000      0.224999994      0.863446116      -9.70103499E-03  0.863500595    
   1.68750000      0.275000006      0.990554035      -9.17817000E-03  0.990596533    
   1.68750000      0.324999988       1.09297132      -7.95112085E-03   1.09300017    
   1.68750000      0.375000000       1.17021084      -6.17330149E-03   1.17022717    
   1.68750000      0.425000012       1.22189343      -4.00035549E-03   1.22189999    
   1.68750000      0.475000024       1.24776077      -1.58934039E-03   1.24776173    
   1.68750000      0.524999976       1.24768400       9.00637591E-04   1.24768436    
   1.68750000      0.575000048       1.22166491       3.31079075E-03   1.22166944    
   1.68750000      0.625000000       1.16984344       5.48311602E-03   1.16985631    
   1.68750000      0.675000012       1.09248912       7.25959241E-03   1.09251320    
   1.68750000      0.725000024      0.989991784       8.48470908E-03  0.990028143    
   1.68750000      0.774999976      0.862847805       9.00604017E-03  0.862894833    
   1.68750000      0.825000048      0.711642623       8.67492799E-03  0.711695492    
   1.68750000      0.875000000      0.537028551       7.34763034E-03  0.537078857    
   1.68750000      0.925000012      0.339699507       4.89354692E-03  0.339734763    
   1.68750000      0.975000024      0.120360605       1.68492750E-03  0.120372400    
   1.68750000       1.00000000       0.00000000       0.00000000       0.00000000    
   1.81250000       0.00000000       0.00000000       0.00000000       0.00000000    
   1.81250000       2.50000004E-02  0.118665770      -2.01866101E-03  0.118682936    
   1.81250000       7.50000030E-02  0.334893405      -5.57178212E-03  0.334939748    
   1.81250000      0.125000000      0.529363811      -8.03628936E-03  0.529424787    
   1.81250000      0.175000012      0.701390147      -9.36213881E-03  0.701452613    
   1.81250000      0.224999994      0.850300491      -9.69142839E-03  0.850355685    
   1.81250000      0.275000006      0.975462914      -9.16891731E-03  0.975506008    
   1.81250000      0.324999988       1.07631123      -7.94295222E-03   1.07634056    
   1.81250000      0.375000000       1.15236712      -6.16652099E-03   1.15238369    
   1.81250000      0.425000012       1.20325780      -3.99482157E-03   1.20326447    
   1.81250000      0.475000024       1.22872853      -1.58491090E-03   1.22872961    
   1.81250000      0.524999976       1.22865236       9.03938897E-04   1.22865272    
   1.81250000      0.575000048       1.20303178       3.31269763E-03   1.20303631    
   1.81250000      0.625000000       1.15200400       5.48303919E-03   1.15201712    
   1.81250000      0.675000012       1.07583475       7.25701312E-03   1.07585919    
   1.81250000      0.725000024      0.974907994       8.47963896E-03  0.974944830    
   1.81250000      0.774999976      0.849710763       8.99951160E-03  0.849758446    