 TITLE= "TESTPLOT" 
 VARIABLES="x","y","fx","fy","magf" 
 ZONE T="1", I=          81 , J=          21
   0.00000000       0.00000000       1.00000000       0.00000000       1.00000000    
   0.00000000       2.50000004E-02   1.00000000       0.00000000       1.00000000    
   0.00000000       7.50000030E-02   1.00000000       0.00000000       1.00000000    
   0.00000000      0.125000000       1.00000000       0.00000000       1.00000000    
   0.00000000      0.175000012       1.00000000       0.00000000       1.00000000    
   0.00000000      0.224999994       1.00000000       0.00000000       1.00000000    
   0.00000000      0.275000006       1.00000000       0.00000000       1.00000000    
   0.00000000      0.324999988       1.00000000       0.00000000       1.00000000    
   0.00000000      0.375000000       1.00000000       0.00000000       1.00000000    
   0.00000000      0.425000012       1.00000000       0.00000000       1.00000000    
   0.00000000      0.475000024       1.00000000       0.00000000       1.00000000    
   0.00000000      0.524999976       1.00000000       0.00000000       1.00000000    
   0.00000000      0.575000048       1.00000000       0.00000000       1.00000000    
   0.00000000      0.625000000       1.00000000       0.00000000       1.00000000    
   0.00000000      0.675000012       1.00000000       0.00000000       1.00000000    
   0.00000000      0.725000024       1.00000000       0.00000000       1.00000000    
   0.00000000      0.774999976       1.00000000       0.00000000       1.00000000    
   0.00000000      0.825000048       1.00000000       0.00000000       1.00000000    
   0.00000000      0.875000000       1.00000000       0.00000000       1.00000000    
   0.00000000      0.925000012       1.00000000       0.00000000       1.00000000    
   0.00000000      0.975000024       1.00000000       0.00000000       1.00000000    
   0.00000000       1.00000000       1.00000000       0.00000000       1.00000000    
   6.25000000E-02   0.00000000      0.500000000       0.00000000      0.500000000    
   6.25000000E-02   2.50000004E-02  0.716382146      0.111083902      0.724943459    
   6.25000000E-02   7.50000030E-02  0.919973016      0.251637280      0.953767121    
   6.25000000E-02  0.125000000       1.01073086      0.274277091       1.04728448    
   6.25000000E-02  0.175000012       1.04560184      0.246671021       1.07430434    
   6.25000000E-02  0.224999994       1.05378985      0.201843888       1.07294643    
   6.25000000E-02  0.275000006       1.05049479      0.155060425       1.06187713    
   6.25000000E-02  0.324999988       1.04348946      0.112397507       1.04952538    
   6.25000000E-02  0.375000000       1.03656113       7.53084496E-02   1.03929317    
   6.25000000E-02  0.425000012       1.03141427       4.30490337E-02   1.03231227    
   6.25000000E-02  0.475000024       1.02873290       1.39209582E-02   1.02882707    
   6.25000000E-02  0.524999976       1.02873921      -1.41369309E-02   1.02883637    
   6.25000000E-02  0.575000048       1.03143287      -4.32749279E-02   1.03234029    
   6.25000000E-02  0.625000000       1.03659225      -7.55540282E-02   1.03934205    
   6.25000000E-02  0.675000012       1.04353511     -0.112674214       1.04960036    
   6.25000000E-02  0.725000024       1.05055678     -0.155380294       1.06198514    
   6.25000000E-02  0.774999976       1.05386829     -0.202219337       1.07309413    
   6.25000000E-02  0.825000048       1.04569554     -0.247113764       1.07449722    
   6.25000000E-02  0.875000000       1.01083374     -0.274794966       1.04751956    
   6.25000000E-02  0.925000012      0.920071244     -0.252220273      0.954015791    
   6.25000000E-02  0.975000024      0.716451764     -0.111388534      0.725058973    
   6.25000000E-02   1.00000000      0.500000000       0.00000000      0.500000000    
  0.187500000       0.00000000       0.00000000       0.00000000       0.00000000    
  0.187500000       2.50000004E-02  0.338621765       3.52734029E-02  0.340453982    
  0.187500000       7.50000030E-02  0.729768455      0.112050734      0.738320649    
  0.187500000      0.125000000      0.947879255      0.180423826      0.964897871    
  0.187500000      0.175000012       1.06122231      0.216722637       1.08312583    
  0.187500000      0.224999994       1.11299777      0.221423075       1.13480937    
  0.187500000      0.275000006       1.13064349      0.202270448       1.14859390    
  0.187500000      0.324999988       1.13128591      0.167562783       1.14362800    
  0.187500000      0.375000000       1.12529802      0.123846740       1.13209260    
  0.187500000      0.425000012       1.11869431       7.55069628E-02   1.12123966    
  0.187500000      0.475000024       1.11470485       2.51415893E-02   1.11498833    
  0.187500000      0.524999976       1.11472356      -2.57757101E-02   1.11502159    
  0.187500000      0.575000048       1.11874914      -7.61506036E-02   1.12133789    
  0.187500000      0.625000000       1.12538767     -0.124508291       1.13225424    
  0.187500000      0.675000012       1.13140965     -0.168248415       1.14385116    
  0.187500000      0.725000024       1.13079906     -0.202981785       1.14887249    
  0.187500000      0.774999976       1.11317921     -0.222156644       1.13513064    
  0.187500000      0.825000048       1.06141973     -0.217469037       1.08346879    
  0.187500000      0.875000000      0.948075891     -0.181168050      0.965230405    
  0.187500000      0.925000012      0.729938924     -0.112766691      0.738598108    
  0.187500000      0.975000024      0.338730305      -3.56199071E-02  0.340597987    
  0.187500000       1.00000000       0.00000000       0.00000000       0.00000000    
  0.312500000       0.00000000       0.00000000       0.00000000       0.00000000    
  0.312500000       2.50000004E-02  0.212856159       1.02658467E-02  0.213103577    
  0.312500000       7.50000030E-02  0.558443427       4.24237661E-02  0.560052514    
  0.312500000      0.125000000      0.813191354       8.61938000E-02  0.817746580    
  0.312500000      0.175000012      0.987257123      0.123102285      0.994902432    
  0.312500000      0.224999994       1.09791803      0.143769711       1.10729110    
  0.312500000      0.275000006       1.16287696      0.145813048       1.17198312    
  0.312500000      0.324999988       1.19742835      0.130923912       1.20456457    
  0.312500000      0.375000000       1.21353340      0.102642968       1.21786654    
  0.312500000      0.425000012       1.21976542       6.50140420E-02   1.22149682    
  0.312500000      0.475000024       1.22157598       2.19562892E-02   1.22177327    
  0.312500000      0.524999976       1.22159994      -2.28720624E-02   1.22181404    
  0.312500000      0.575000048       1.21983504      -6.59288540E-02   1.22161543    
  0.312500000      0.625000000       1.21364307     -0.103554085       1.21805298    
  0.312500000      0.675000012       1.19757009     -0.131826475       1.20480382    
  0.312500000      0.725000024       1.16303945     -0.146699667       1.17225492    
  0.312500000      0.774999976       1.09808683     -0.144630581       1.10757065    
  0.312500000      0.825000048      0.987415552     -0.123926610      0.995161951    
  0.312500000      0.875000000      0.813323975      -8.69727135E-02  0.817960918    
  0.312500000      0.925000012      0.558538318      -4.31456082E-02  0.560202301    
  0.312500000      0.975000024      0.212907985      -1.06104584E-02  0.213172212    
  0.312500000       1.00000000       0.00000000       0.00000000       0.00000000    
  0.437500000       0.00000000       0.00000000       0.00000000       0.00000000    
  0.437500000       2.50000004E-02  0.168343604       2.77203205E-03  0.168366417    
  0.437500000       7.50000030E-02  0.466696769       1.52162295E-02  0.466944754    
  0.437500000      0.125000000      0.715145946       3.71003449E-02  0.716107666    
  0.437500000      0.175000012      0.910250902       5.99583797E-02  0.912223518    
  0.437500000      0.224999994       1.05521631       7.69237876E-02   1.05801642    
  0.437500000      0.275000006       1.15724707       8.39647874E-02   1.16028905    
  0.437500000      0.324999988       1.22512627       7.97793567E-02   1.22772110    
  0.437500000      0.375000000       1.26743197       6.51745051E-02   1.26910651    
  0.437500000      0.425000012       1.29135966       4.23592813E-02   1.29205430    
  0.437500000      0.475000024       1.30201530       1.43569401E-02   1.30209446    
  0.437500000      0.524999976       1.30203223      -1.54104596E-02   1.30212343    
  0.437500000      0.575000048       1.29140687      -4.34024036E-02   1.29213607    
  0.437500000      0.625000000       1.26750159      -6.61958009E-02   1.26922894    
  0.437500000      0.675000012       1.22520709      -8.07679445E-02   1.22786641    
  0.437500000      0.725000024       1.15732646      -8.49103779E-02   1.16043711    
  0.437500000      0.774999976       1.05528104      -7.78177902E-02   1.05814636    
  0.437500000      0.825000048      0.910290539      -6.07954189E-02  0.912318408    
  0.437500000      0.875000000      0.715159535      -3.78798693E-02  0.716162026    
  0.437500000      0.925000012      0.466694117      -1.59350671E-02  0.466966093    
  0.437500000      0.975000024      0.168347955      -3.11515201E-03  0.168376774    
  0.437500000       1.00000000       0.00000000       0.00000000       0.00000000    
  0.562500000       0.00000000       0.00000000       0.00000000       0.00000000    
  0.562500000       2.50000004E-02  0.149416357       3.08091039E-05  0.149416357    
  0.562500000       7.50000030E-02  0.420400560       3.77272884E-03  0.420417488    
  0.562500000      0.125000000      0.657214999       1.33158676E-02  0.657349885    
  0.562500000      0.175000012      0.855941176       2.50995234E-02  0.856309116    
  0.562500000      0.224999994       1.01578021       3.53818834E-02   1.01639628    
  0.562500000      0.275000006       1.13874650       4.12667692E-02   1.13949394    
  0.562500000      0.324999988       1.22877860       4.11429256E-02   1.22946727    
  0.562500000      0.375000000       1.29064488       3.47533375E-02   1.29111266    
  0.562500000      0.425000012       1.32890654       2.30164193E-02   1.32910585    
  0.562500000      0.475000024       1.34708607       7.72362947E-03   1.34710824    
  0.562500000      0.524999976       1.34708738      -8.80760886E-03   1.34711623    
  0.562500000      0.575000048       1.32890666      -2.40855273E-02   1.32912493    
  0.562500000      0.625000000       1.29063702      -3.57934833E-02   1.29113328    
  0.562500000      0.675000012       1.22875464      -4.21417281E-02   1.22947717    
  0.562500000      0.725000024       1.13869870      -4.22138236E-02   1.13948095    
  0.562500000      0.774999976       1.01570415      -3.62707600E-02   1.01635158    
  0.562500000      0.825000048      0.855839968      -2.59283744E-02  0.856232643    
  0.562500000      0.875000000      0.657102942      -1.40876407E-02  0.657253921    
  0.562500000      0.925000012      0.420306921      -4.48678993E-03  0.420330882    
  0.562500000      0.975000024      0.149382651      -3.72509385E-04  0.149383113    
  0.562500000       1.00000000       0.00000000       0.00000000       0.00000000    
  0.687500000       0.00000000       0.00000000       0.00000000       0.00000000    
  0.687500000       2.50000004E-02  0.140241861      -1.12977857E-03  0.140246406    
  0.687500000       7.50000030E-02  0.396104783      -1.38773187E-03  0.396107227    
  0.687500000      0.125000000      0.623935461       1.83497812E-03  0.623938143    
  0.687500000      0.175000012      0.821016073       7.07789790E-03  0.821046531    
  0.687500000      0.224999994      0.985920548       1.24583505E-02  0.985999286    
  0.687500000      0.275000006       1.11871266       1.62821263E-02   1.11883116    
  0.687500000      0.324999988       1.22075450       1.73817202E-02   1.22087824    
  0.687500000      0.375000000       1.29422617       1.53018963E-02   1.29431665    
  0.687500000      0.425000012       1.34150767       1.03191994E-02   1.34154737    
  0.687500000      0.475000024       1.36458158       3.32620833E-03   1.36458564    
  0.687500000      0.524999976       1.36456442      -4.37843660E-03   1.36457145    
  0.687500000      0.575000048       1.34145212      -1.13559738E-02   1.34150016    
  0.687500000      0.625000000       1.29412925      -1.63097680E-02   1.29423201    
  0.687500000      0.675000012       1.22061491      -1.83495209E-02   1.22075284    
  0.687500000      0.725000024       1.11853087      -1.72013007E-02   1.11866307    
  0.687500000      0.774999976      0.985703468      -1.33238211E-02  0.985793471    
  0.687500000      0.825000048      0.820779800      -7.88866915E-03  0.820817709    
  0.687500000      0.875000000      0.623709083      -2.59487634E-03  0.623714507    
  0.687500000      0.925000012      0.395931840       6.79208781E-04  0.395932406    
  0.687500000      0.975000024      0.140177459       7.89299200E-04  0.140179679    
  0.687500000       1.00000000       0.00000000       0.00000000       0.00000000    
  0.812500000       0.00000000       0.00000000       0.00000000       0.00000000    
  0.812500000       2.50000004E-02  0.135259211      -1.64580322E-03  0.135269225    
  0.812500000       7.50000030E-02  0.382264793      -3.76275484E-03  0.382283300    
  0.812500000      0.125000000      0.603777051      -3.65018798E-03  0.603788078    
  0.812500000      0.175000012      0.797989547      -1.87407434E-03  0.797991753    
  0.812500000      0.224999994      0.963616252       6.27070433E-04  0.963616431    
  0.812500000      0.275000006       1.10009480       2.92406720E-03   1.10009873    
  0.812500000      0.324999988       1.20759916       4.28684708E-03   1.20760679    
  0.812500000      0.375000000       1.28687108       4.32433374E-03   1.28687835    
  0.812500000      0.425000012       1.33891416       3.04002385E-03   1.33891761    
  0.812500000      0.475000024       1.36464632       7.97761546E-04   1.36464655    
  0.812500000      0.524999976       1.36461079      -1.78870442E-03   1.36461198    
  0.812500000      0.575000048       1.33880639      -4.01789090E-03   1.33881235    
  0.812500000      0.625000000       1.28669286      -5.27748279E-03   1.28670371    
  0.812500000      0.675000012       1.20735478      -5.20525966E-03   1.20736599    
  0.812500000      0.725000024       1.09979367      -3.80132603E-03   1.09980023    
  0.812500000      0.774999976      0.963276744      -1.46018120E-03  0.963277876    
  0.812500000      0.825000048      0.797638535       1.08531211E-03  0.797639310    
  0.812500000      0.875000000      0.603455424       2.90273409E-03  0.603462398    
  0.812500000      0.925000012      0.382026851       3.05961282E-03  0.382039100    
  0.812500000      0.975000024      0.135169864       1.30662578E-03  0.135176182    
  0.812500000       1.00000000       0.00000000       0.00000000       0.00000000    
  0.937500000       0.00000000       0.00000000       0.00000000       0.00000000    
  0.937500000       2.50000004E-02  0.132137343      -1.87322136E-03  0.132150620    
  0.937500000       7.50000030E-02  0.373334497      -4.83797444E-03  0.373365849    
  0.937500000      0.125000000      0.590175033      -6.20060042E-03  0.590207577    
  0.937500000      0.175000012      0.781383753      -6.14778744E-03  0.781407952    
  0.937500000      0.224999994      0.945891500      -5.16706193E-03  0.945905626    
  0.937500000      0.275000006       1.08297038      -3.77253257E-03   1.08297694    
  0.937500000      0.324999988       1.19229174      -2.41016806E-03   1.19229424    
  0.937500000      0.375000000       1.27388215      -1.37683912E-03   1.27388287    
  0.937500000      0.425000012       1.32799196      -7.75881112E-04   1.32799220    
  0.937500000      0.475000024       1.35492206      -5.22741117E-04   1.35492218    
  0.937500000      0.524999976       1.35487151      -3.98636388E-04   1.35487151    
  0.937500000      0.575000048       1.32784176      -1.35705544E-04   1.32784176    
  0.937500000      0.625000000       1.27363777       4.84371092E-04   1.27363789    
  0.937500000      0.675000012       1.19196296       1.54423981E-03   1.19196391    
  0.937500000      0.725000024       1.08257413       2.93804985E-03   1.08257806    
  0.937500000      0.774999976      0.945454895       4.36675642E-03  0.945464969    
  0.937500000      0.825000048      0.780943453       5.38207544E-03  0.780961990    
  0.937500000      0.875000000      0.589779854       5.46710100E-03  0.589805186    
  0.937500000      0.925000012      0.373046577       4.14106762E-03  0.373069555    
  0.937500000      0.975000024      0.132028311       1.53547735E-03  0.132037237    
  0.937500000       1.00000000       0.00000000       0.00000000       0.00000000    
   1.06250000       0.00000000       0.00000000       0.00000000       0.00000000    
   1.06250000       2.50000004E-02  0.129822999      -1.96916796E-03  0.129837930    
   1.06250000       7.50000030E-02  0.366641343      -5.30463364E-03  0.366679698    
   1.06250000      0.125000000      0.579693198      -7.33542722E-03  0.579739630    
   1.06250000      0.175000012      0.767989397      -8.09199177E-03  0.768032014    
   1.06250000      0.224999994      0.930619061      -7.85640255E-03  0.930652261    
   1.06250000      0.275000006       1.06683564      -6.93647051E-03   1.06685817    
   1.06250000      0.324999988       1.17611432      -5.62174153E-03   1.17612779    
   1.06250000      0.375000000       1.25815487      -4.14102897E-03   1.25816166    
   1.06250000      0.425000012       1.31283498      -2.63583520E-03   1.31283760    
   1.06250000      0.475000024       1.34013689      -1.15904550E-03   1.34013736    
   1.06250000      0.524999976       1.34007525       3.02300119E-04   1.34007525    
   1.06250000      0.575000048       1.31265306       1.78579194E-03   1.31265426    
   1.06250000      0.625000000       1.25786018       3.30483075E-03   1.25786448    
   1.06250000      0.675000012       1.17572212       4.80533158E-03   1.17573202    
   1.06250000      0.725000024       1.06636882       6.14296738E-03   1.06638646    
   1.06250000      0.774999976      0.930111408       7.08718784E-03  0.930138409    
   1.06250000      0.825000048      0.767484486       7.34685222E-03  0.767519653    
   1.06250000      0.875000000      0.579246044       6.61269668E-03  0.579283774    
   1.06250000      0.925000012      0.366318911       4.61166585E-03  0.366347939    
   1.06250000      0.975000024      0.129701078       1.63220370E-03  0.129711345    
   1.06250000       1.00000000       0.00000000       0.00000000       0.00000000    
   1.18750000       0.00000000       0.00000000       0.00000000       0.00000000    
   1.18750000       2.50000004E-02  0.127839908      -2.00595171E-03  0.127855644    
   1.18750000       7.50000030E-02  0.360918760      -5.49214799E-03  0.360960543    
   1.18750000      0.125000000      0.570620298      -7.80721661E-03  0.570673704    
   1.18750000      0.175000012      0.756104350      -8.92137829E-03  0.756156981    
   1.18750000      0.224999994      0.916557312      -9.02827084E-03  0.916601777    
   1.18750000      0.275000006       1.05125391      -8.33917223E-03   1.05128694    
   1.18750000      0.324999988       1.15960312      -7.06436997E-03   1.15962470    
   1.18750000      0.375000000       1.24116778      -5.39337378E-03   1.24117947    
   1.18750000      0.425000012       1.29565787      -3.48022860E-03   1.29566252    
   1.18750000      0.475000024       1.32290530      -1.44067011E-03   1.32290602    
   1.18750000      0.524999976       1.32283604       6.39148115E-04   1.32283616    
   1.18750000      0.575000048       1.29545379       2.68368353E-03   1.29545653    
   1.18750000      0.625000000       1.24083781       4.60618874E-03   1.24084640    
   1.18750000      0.675000012       1.15916634       6.28988491E-03   1.15918338    
   1.18750000      0.725000024       1.05073881       7.57966004E-03   1.05076611    
   1.18750000      0.774999976      0.916001737       8.28469731E-03  0.916039228    
   1.18750000      0.825000048      0.755556405       8.19316320E-03  0.755600810    
   1.18750000      0.875000000      0.570139349       7.09407777E-03  0.570183516    
   1.18750000      0.925000012      0.360574722       4.80353599E-03  0.360606730    
   1.18750000      0.975000024      0.127710462       1.67005800E-03  0.127721369    
   1.18750000       1.00000000       0.00000000       0.00000000       0.00000000    
   1.31250000       0.00000000       0.00000000       0.00000000       0.00000000    
   1.31250000       2.50000004E-02  0.125980780      -2.01851106E-03  0.125996947    
   1.31250000       7.50000030E-02  0.355587661      -5.55953383E-03  0.355631113    
   1.31250000      0.125000000      0.562142551      -7.98458327E-03  0.562199235    
   1.31250000      0.175000012      0.744882762      -9.24450997E-03  0.744940162    
   1.31250000      0.224999994      0.903051972      -9.49708931E-03  0.903101921    
   1.31250000      0.275000006       1.03595090      -8.91169254E-03   1.03598917    
   1.31250000      0.324999988       1.14297462      -7.66154425E-03   1.14300025    
   1.31250000      0.375000000       1.22363615      -5.91557939E-03   1.22365046    
   1.31250000      0.425000012       1.27757764      -3.83106852E-03   1.27758336    
   1.31250000      0.475000024       1.30456781      -1.55104417E-03   1.30456877    
   1.31250000      0.524999976       1.30449414       7.93640502E-04   1.30449438    
   1.31250000      0.575000048       1.27735949       3.07668699E-03   1.27736318    
   1.31250000      0.625000000       1.22328413       5.16663631E-03   1.22329509    
   1.31250000      0.675000012       1.14251029       6.91965688E-03   1.14253128    
   1.31250000      0.725000024       1.03540635       8.17810744E-03   1.03543866    
   1.31250000      0.774999976      0.902467608       8.77283420E-03  0.902510226    
   1.31250000      0.825000048      0.744309783       8.52962583E-03  0.744358659    
   1.31250000      0.875000000      0.561642766       7.27916230E-03  0.561689913    
   1.31250000      0.925000012      0.355231702       4.87391511E-03  0.355265141    
   1.31250000      0.975000024      0.125847459       1.68314867E-03  0.125858724    
   1.31250000       1.00000000       0.00000000       0.00000000       0.00000000    
   1.43750000       0.00000000       0.00000000       0.00000000       0.00000000    
   1.43750000       2.50000004E-02  0.124158658      -2.02121772E-03  0.124175109    
   1.43750000       7.50000030E-02  0.350395054      -5.57791255E-03  0.350439459    
   1.43750000      0.125000000      0.553892374      -8.03932548E-03  0.553950727    
   1.43750000      0.175000012      0.733928680      -9.35175922E-03  0.733988225    
   1.43750000      0.224999994      0.889782727      -9.66035761E-03  0.889835179    
   1.43750000      0.275000006       1.02077734      -9.11756232E-03   1.02081800    
   1.43750000      0.324999988       1.12631202      -7.88066629E-03   1.12633955    
   1.43750000      0.375000000       1.20588803      -6.10930100E-03   1.20590353    
   1.43750000      0.425000012       1.25912511      -3.96041339E-03   1.25913131    
   1.43750000      0.475000024       1.28576899      -1.58666912E-03   1.28576994    
   1.43750000      0.524999976       1.28569281       8.61858134E-04   1.28569305    
   1.43750000      0.575000048       1.25889945       3.23665002E-03   1.25890362    
   1.43750000      0.625000000       1.20552421       5.38828224E-03   1.20553625    
   1.43750000      0.675000012       1.12583351       7.16292253E-03   1.12585628    
   1.43750000      0.725000024       1.02021813       8.40319507E-03   1.02025270    
   1.43750000      0.774999976      0.889184952       8.95014964E-03  0.889230013    
   1.43750000      0.825000048      0.733345091       8.64610448E-03  0.733396053    
   1.43750000      0.875000000      0.553385377       7.33901421E-03  0.553434014    
   1.43750000      0.925000012      0.350035578       4.89418581E-03  0.350069791    
   1.43750000      0.975000024      0.124024972       1.68611226E-03  0.124036439    
   1.43750000       1.00000000       0.00000000       0.00000000       0.00000000    
   1.56250000       0.00000000       0.00000000       0.00000000       0.00000000    
   1.56250000       2.50000004E-02  0.122343250      -2.02042749E-03  0.122359931    
   1.56250000       7.50000030E-02  0.345240593      -5.57838567E-03  0.345285654    
   1.56250000      0.125000000      0.545715451      -8.04783590E-03  0.545774758    
   1.56250000      0.175000012      0.723069608      -9.37530957E-03  0.723130405    
   1.56250000      0.224999994      0.876604319      -9.70195793E-03  0.876658022    
   1.56250000      0.275000006       1.00565934      -9.17451829E-03   1.00570118    
   1.56250000      0.324999988       1.10964489      -7.94451963E-03   1.10967326    
   1.56250000      0.375000000       1.18806446      -6.16651122E-03   1.18808043    
   1.56250000      0.425000012       1.24053538      -3.99694033E-03   1.24054182    
   1.56250000      0.475000024       1.26679718      -1.59267371E-03   1.26679814    
   1.56250000      0.524999976       1.26671994       8.89992574E-04   1.26672029    
   1.56250000      0.575000048       1.24030697       3.29466211E-03   1.24031138    
   1.56250000      0.625000000       1.18769670       5.46459761E-03   1.18770921    
   1.56250000      0.675000012       1.10916162       7.24313874E-03   1.10918522    
   1.56250000      0.725000024       1.00509596       8.47376604E-03   1.00513172    
   1.56250000      0.774999976      0.876003623       9.00147762E-03  0.876049817    
   1.56250000      0.825000048      0.722484827       8.67552776E-03  0.722536922    
   1.56250000      0.875000000      0.545208454       7.35103432E-03  0.545257986    
   1.56250000      0.925000012      0.344881952       4.89663519E-03  0.344916701    
   1.56250000      0.975000024      0.122209184       1.68592401E-03  0.122220814    
   1.56250000       1.00000000       0.00000000       0.00000000       0.00000000    
   1.68750000       0.00000000       0.00000000       0.00000000       0.00000000    
   1.68750000       2.50000004E-02  0.120523885      -2.01974832E-03  0.120540805    
   1.68750000       7.50000030E-02  0.340087980      -5.57590555E-03  0.340133697    
   1.68750000      0.125000000      0.537552595      -8.04411806E-03  0.537612736    
   1.68750000      0.175000012      0.712235749      -9.37271863E-03  0.712297440    
   1.68750000      0.224999994      0.863454580      -9.70258750E-03  0.863509059    
   1.68750000      0.275000006      0.990562737      -9.17910598E-03  0.990605295    
   1.68750000      0.324999988       1.09298134      -7.95195997E-03   1.09301019    
   1.68750000      0.375000000       1.17022228      -6.17382210E-03   1.17023861    
   1.68750000      0.425000012       1.22190571      -4.00040578E-03   1.22191226    
   1.68750000      0.475000024       1.24777365      -1.58940000E-03   1.24777472    
   1.68750000      0.524999976       1.24769664       9.00947838E-04   1.24769700    
   1.68750000      0.575000048       1.22167754       3.31171928E-03   1.22168207    
   1.68750000      0.625000000       1.16985512       5.48410183E-03   1.16986799    
   1.68750000      0.675000012       1.09249997       7.26084504E-03   1.09252405    
   1.68750000      0.725000024      0.990001678       8.48637708E-03  0.990038037    
   1.68750000      0.774999976      0.862857819       9.00778361E-03  0.862904847    
   1.68750000      0.825000048      0.711655736       8.67656246E-03  0.711708605    
   1.68750000      0.875000000      0.537050605       7.34932255E-03  0.537100911    
   1.68750000      0.925000012      0.339733541       4.89499327E-03  0.339768797    
   1.68750000      0.975000024      0.120391577       1.68544392E-03  0.120403372    
   1.68750000       1.00000000       0.00000000       0.00000000       0.00000000    
   1.81250000       0.00000000       0.00000000       0.00000000       0.00000000    
   1.81250000       2.50000004E-02  0.118698403      -2.01867614E-03  0.118715569    
   1.81250000       7.50000030E-02  0.334927469      -5.57240844E-03  0.334973842    
   1.81250000      0.125000000      0.529385090      -8.03754758E-03  0.529446125    
   1.81250000      0.175000012      0.701402545      -9.36315209E-03  0.701465070    
   1.81250000      0.224999994      0.850309372      -9.69164260E-03  0.850364625    
   1.81250000      0.275000006      0.975471675      -9.16859135E-03  0.975514770    
   1.81250000      0.324999988       1.07632136      -7.94281531E-03   1.07635069    
   1.81250000      0.375000000       1.15237856      -6.16629468E-03   1.15239501    
   1.81250000      0.425000012       1.20326972      -3.99439875E-03   1.20327640    
   1.81250000      0.475000024       1.22874093      -1.58474594E-03   1.22874188    
   1.81250000      0.524999976       1.22866488       9.04187560E-04   1.22866523    
   1.81250000      0.575000048       1.20304394       3.31310276E-03   1.20304847    
   1.81250000      0.625000000       1.15201545       5.48305735E-03   1.15202844    
   1.81250000      0.675000012       1.07584572       7.25691766E-03   1.07587016    
   1.81250000      0.725000024      0.974918127       8.47998634E-03  0.974955022    
   1.81250000      0.774999976      0.849721014       9.00029764E-03  0.849768698    