 TITLE= "TESTPLOT" 
 VARIABLES="x","y","fx","fy","magf" 
 ZONE T="1", I=          81 , J=          21
   0.00000000       0.00000000       1.00000000       0.00000000       1.00000000    
   0.00000000       2.50000004E-02   1.00000000       0.00000000       1.00000000    
   0.00000000       7.50000030E-02   1.00000000       0.00000000       1.00000000    
   0.00000000      0.125000000       1.00000000       0.00000000       1.00000000    
   0.00000000      0.175000012       1.00000000       0.00000000       1.00000000    
   0.00000000      0.224999994       1.00000000       0.00000000       1.00000000    
   0.00000000      0.275000006       1.00000000       0.00000000       1.00000000    
   0.00000000      0.324999988       1.00000000       0.00000000       1.00000000    
   0.00000000      0.375000000       1.00000000       0.00000000       1.00000000    
   0.00000000      0.425000012       1.00000000       0.00000000       1.00000000    
   0.00000000      0.475000024       1.00000000       0.00000000       1.00000000    
   0.00000000      0.524999976       1.00000000       0.00000000       1.00000000    
   0.00000000      0.575000048       1.00000000       0.00000000       1.00000000    
   0.00000000      0.625000000       1.00000000       0.00000000       1.00000000    
   0.00000000      0.675000012       1.00000000       0.00000000       1.00000000    
   0.00000000      0.725000024       1.00000000       0.00000000       1.00000000    
   0.00000000      0.774999976       1.00000000       0.00000000       1.00000000    
   0.00000000      0.825000048       1.00000000       0.00000000       1.00000000    
   0.00000000      0.875000000       1.00000000       0.00000000       1.00000000    
   0.00000000      0.925000012       1.00000000       0.00000000       1.00000000    
   0.00000000      0.975000024       1.00000000       0.00000000       1.00000000    
   0.00000000       1.00000000       1.00000000       0.00000000       1.00000000    
   6.25000000E-02   0.00000000      0.500000000       0.00000000      0.500000000    
   6.25000000E-02   2.50000004E-02  0.716385961      0.111086734      0.724947691    
   6.25000000E-02   7.50000030E-02  0.919983029      0.251643300      0.953778327    
   6.25000000E-02  0.125000000       1.01074362      0.274282932       1.04729831    
   6.25000000E-02  0.175000012       1.04561496      0.246675760       1.07431817    
   6.25000000E-02  0.224999994       1.05380297      0.201847285       1.07295990    
   6.25000000E-02  0.275000006       1.05050802      0.155062705       1.06189048    
   6.25000000E-02  0.324999988       1.04350257      0.112398818       1.04953849    
   6.25000000E-02  0.375000000       1.03657365       7.53088444E-02   1.03930569    
   6.25000000E-02  0.425000012       1.03142715       4.30490486E-02   1.03232515    
   6.25000000E-02  0.475000024       1.02874577       1.39203500E-02   1.02883995    
   6.25000000E-02  0.524999976       1.02875185      -1.41383819E-02   1.02884901    
   6.25000000E-02  0.575000048       1.03144550      -4.32769693E-02   1.03235304    
   6.25000000E-02  0.625000000       1.03660536      -7.55567104E-02   1.03935528    
   6.25000000E-02  0.675000012       1.04354835     -0.112677388       1.04961395    
   6.25000000E-02  0.725000024       1.05057001     -0.155383855       1.06199884    
   6.25000000E-02  0.774999976       1.05388188     -0.202223688       1.07310832    
   6.25000000E-02  0.825000048       1.04570889     -0.247119129       1.07451141    
   6.25000000E-02  0.875000000       1.01084673     -0.274800956       1.04753363    
   6.25000000E-02  0.925000012      0.920081615     -0.252225637      0.954027236    
   6.25000000E-02  0.975000024      0.716455996     -0.111390837      0.725063503    
   6.25000000E-02   1.00000000      0.500000000       0.00000000      0.500000000    
  0.187500000       0.00000000       0.00000000       0.00000000       0.00000000    
  0.187500000       2.50000004E-02  0.338632852       3.52762826E-02  0.340465307    
  0.187500000       7.50000030E-02  0.729798019      0.112057224      0.738350868    
  0.187500000      0.125000000      0.947916865      0.180430621      0.964936078    
  0.187500000      0.175000012       1.06126177      0.216728449       1.08316565    
  0.187500000      0.224999994       1.11303735      0.221427590       1.13484907    
  0.187500000      0.275000006       1.13068247      0.202274129       1.14863288    
  0.187500000      0.324999988       1.13132465      0.167565703       1.14366674    
  0.187500000      0.375000000       1.12533569      0.123848364       1.13213027    
  0.187500000      0.425000012       1.11873245       7.55075291E-02   1.12127769    
  0.187500000      0.475000024       1.11474347       2.51414292E-02   1.11502695    
  0.187500000      0.524999976       1.11476183      -2.57763639E-02   1.11505985    
  0.187500000      0.575000048       1.11878693      -7.61516392E-02   1.12137556    
  0.187500000      0.625000000       1.12542605     -0.124510005       1.13229263    
  0.187500000      0.675000012       1.13144875     -0.168251127       1.14389014    
  0.187500000      0.725000024       1.13083911     -0.202985793       1.14891267    
  0.187500000      0.774999976       1.11322021     -0.222162098       1.13517189    
  0.187500000      0.825000048       1.06146073     -0.217475802       1.08351028    
  0.187500000      0.875000000      0.948114991     -0.181175470      0.965270221    
  0.187500000      0.925000012      0.729969621     -0.112772986      0.738629401    
  0.187500000      0.975000024      0.338742733      -3.56224626E-02  0.340610623    
  0.187500000       1.00000000       0.00000000       0.00000000       0.00000000    
  0.312500000       0.00000000       0.00000000       0.00000000       0.00000000    
  0.312500000       2.50000004E-02  0.212872326       1.02687962E-02  0.213119864    
  0.312500000       7.50000030E-02  0.558490872       4.24301922E-02  0.560100317    
  0.312500000      0.125000000      0.813253522       8.62002745E-02  0.817809165    
  0.312500000      0.175000012      0.987322927      0.123107851      0.994968414    
  0.312500000      0.224999994       1.09798360      0.143774301       1.10735679    
  0.312500000      0.275000006       1.16294062      0.145816565       1.17204666    
  0.312500000      0.324999988       1.19749141      0.130926594       1.20462751    
  0.312500000      0.375000000       1.21359587      0.102644891       1.21792889    
  0.312500000      0.425000012       1.21982837       6.50150552E-02   1.22155976    
  0.312500000      0.475000024       1.22163987       2.19564717E-02   1.22183716    
  0.312500000      0.524999976       1.22166395      -2.28723958E-02   1.22187805    
  0.312500000      0.575000048       1.21989822      -6.59296587E-02   1.22167850    
  0.312500000      0.625000000       1.21370661     -0.103555635       1.21811640    
  0.312500000      0.675000012       1.19763446     -0.131829038       1.20486820    
  0.312500000      0.725000024       1.16310549     -0.146703392       1.17232084    
  0.312500000      0.774999976       1.09815466     -0.144635707       1.10763860    
  0.312500000      0.825000048      0.987484157     -0.123933278      0.995230854    
  0.312500000      0.875000000      0.813388646      -8.69803578E-02  0.818026066    
  0.312500000      0.925000012      0.558587968      -4.31525744E-02  0.560252309    
  0.312500000      0.975000024      0.212925911      -1.06134862E-02  0.213190258    
  0.312500000       1.00000000       0.00000000       0.00000000       0.00000000    
  0.437500000       0.00000000       0.00000000       0.00000000       0.00000000    
  0.437500000       2.50000004E-02  0.168364644       2.77510867E-03  0.168387517    
  0.437500000       7.50000030E-02  0.466762781       1.52232805E-02  0.467010945    
  0.437500000      0.125000000      0.715233564       3.71076055E-02  0.716195524    
  0.437500000      0.175000012      0.910343647       5.99642284E-02  0.912316442    
  0.437500000      0.224999994       1.05530834       7.69281983E-02   1.05810857    
  0.437500000      0.275000006       1.15733683       8.39679763E-02   1.16037893    
  0.437500000      0.324999988       1.22521448       7.97817409E-02   1.22780931    
  0.437500000      0.375000000       1.26751983       6.51765093E-02   1.26919448    
  0.437500000      0.425000012       1.29144859       4.23606895E-02   1.29214323    
  0.437500000      0.475000024       1.30210495       1.43573768E-02   1.30218410    
  0.437500000      0.524999976       1.30212200      -1.54105192E-02   1.30221319    
  0.437500000      0.575000048       1.29149628      -4.34031487E-02   1.29222536    
  0.437500000      0.625000000       1.26759052      -6.61976114E-02   1.26931787    
  0.437500000      0.675000012       1.22529650      -8.07703882E-02   1.22795570    
  0.437500000      0.725000024       1.15741754      -8.49136263E-02   1.16052818    
  0.437500000      0.774999976       1.05537486      -7.78224021E-02   1.05824029    
  0.437500000      0.825000048      0.910385668      -6.08014986E-02  0.912413776    
  0.437500000      0.875000000      0.715248942      -3.78867164E-02  0.716251671    
  0.437500000      0.925000012      0.466761947      -1.59410220E-02  0.467034072    
  0.437500000      0.975000024      0.168370575      -3.11764842E-03  0.168399438    
  0.437500000       1.00000000       0.00000000       0.00000000       0.00000000    
  0.562500000       0.00000000       0.00000000       0.00000000       0.00000000    
  0.562500000       2.50000004E-02  0.149444371       3.38514619E-05  0.149444371    
  0.562500000       7.50000030E-02  0.420485973       3.77974636E-03  0.420502961    
  0.562500000      0.125000000      0.657328129       1.33232428E-02  0.657463133    
  0.562500000      0.175000012      0.856061816       2.51058042E-02  0.856429875    
  0.562500000      0.224999994       1.01589918       3.53869051E-02   1.01651525    
  0.562500000      0.275000006       1.13886356       4.12705429E-02   1.13961112    
  0.562500000      0.324999988       1.22889423       4.11456823E-02   1.22958291    
  0.562500000      0.375000000       1.29075980       3.47551778E-02   1.29122770    
  0.562500000      0.425000012       1.32902265       2.30175424E-02   1.32922196    
  0.562500000      0.475000024       1.34720278       7.72413146E-03   1.34722495    
  0.562500000      0.524999976       1.34720397      -8.80772900E-03   1.34723282    
  0.562500000      0.575000048       1.32902300      -2.40861773E-02   1.32924128    
  0.562500000      0.625000000       1.29075253      -3.57948989E-02   1.29124880    
  0.562500000      0.675000012       1.22887003      -4.21442501E-02   1.22959244    
  0.562500000      0.725000024       1.13881576      -4.22173999E-02   1.13959801    
  0.562500000      0.774999976       1.01582432      -3.62754501E-02   1.01647186    
  0.562500000      0.825000048      0.855961502      -2.59344075E-02  0.856354296    
  0.562500000      0.875000000      0.657217145      -1.40944831E-02  0.657368302    
  0.562500000      0.925000012      0.420393139      -4.49268986E-03  0.420417160    
  0.562500000      0.975000024      0.149411619      -3.74946510E-04  0.149412081    
  0.562500000       1.00000000       0.00000000       0.00000000       0.00000000    
  0.687500000       0.00000000       0.00000000       0.00000000       0.00000000    
  0.687500000       2.50000004E-02  0.140277475      -1.12654245E-03  0.140281990    
  0.687500000       7.50000030E-02  0.396209300      -1.38045033E-03  0.396211714    
  0.687500000      0.125000000      0.624073982       1.84254581E-03  0.624076724    
  0.687500000      0.175000012      0.821163654       7.08454987E-03  0.821194232    
  0.687500000      0.224999994      0.986066461       1.24642067E-02  0.986145198    
  0.687500000      0.275000006       1.11885571       1.62871517E-02   1.11897421    
  0.687500000      0.324999988       1.22089601       1.73855871E-02   1.22101986    
  0.687500000      0.375000000       1.29436684       1.53041333E-02   1.29445732    
  0.687500000      0.425000012       1.34164882       1.03201550E-02   1.34168851    
  0.687500000      0.475000024       1.36472285       3.32661625E-03   1.36472690    
  0.687500000      0.524999976       1.36470556      -4.37857630E-03   1.36471260    
  0.687500000      0.575000048       1.34159350      -1.13571528E-02   1.34164155    
  0.687500000      0.625000000       1.29427135      -1.63122397E-02   1.29437411    
  0.687500000      0.675000012       1.22075653      -1.83528475E-02   1.22089458    
  0.687500000      0.725000024       1.11867428      -1.72051452E-02   1.11880660    
  0.687500000      0.774999976      0.985850334      -1.33285336E-02  0.985940397    
  0.687500000      0.825000048      0.820928574      -7.89476559E-03  0.820966542    
  0.687500000      0.875000000      0.623848915      -2.60201376E-03  0.623854339    
  0.687500000      0.925000012      0.396037281       6.72930735E-04  0.396037847    
  0.687500000      0.975000024      0.140213430       7.86702731E-04  0.140215635    
  0.687500000       1.00000000       0.00000000       0.00000000       0.00000000    
  0.812500000       0.00000000       0.00000000       0.00000000       0.00000000    
  0.812500000       2.50000004E-02  0.135302037      -1.64277083E-03  0.135312006    
  0.812500000       7.50000030E-02  0.382388771      -3.75584583E-03  0.382407218    
  0.812500000      0.125000000      0.603941083      -3.64289433E-03  0.603952050    
  0.812500000      0.175000012      0.798163772      -1.86777231E-03  0.798165977    
  0.812500000      0.224999994      0.963788748       6.32237061E-04  0.963788986    
  0.812500000      0.275000006       1.10026383       2.92778201E-03   1.10026777    
  0.812500000      0.324999988       1.20776629       4.28909995E-03   1.20777392    
  0.812500000      0.375000000       1.28703690       4.32560034E-03   1.28704417    
  0.812500000      0.425000012       1.33907962       3.04067577E-03   1.33908308    
  0.812500000      0.475000024       1.36481142       7.98092922E-04   1.36481166    
  0.812500000      0.524999976       1.36477602      -1.78856624E-03   1.36477721    
  0.812500000      0.575000048       1.33897233      -4.01794445E-03   1.33897829    
  0.812500000      0.625000000       1.28685987      -5.27780596E-03   1.28687072    
  0.812500000      0.675000012       1.20752215      -5.20651136E-03   1.20753336    
  0.812500000      0.725000024       1.09996390      -3.80397681E-03   1.09997046    
  0.812500000      0.774999976      0.963450551      -1.46441697E-03  0.963451684    
  0.812500000      0.825000048      0.797814727       1.07945350E-03  0.797815502    
  0.812500000      0.875000000      0.603620887       2.89591984E-03  0.603627861    
  0.812500000      0.925000012      0.382151783       3.05358460E-03  0.382163972    
  0.812500000      0.975000024      0.135212958       1.30413205E-03  0.135219246    
  0.812500000       1.00000000       0.00000000       0.00000000       0.00000000    
  0.937500000       0.00000000       0.00000000       0.00000000       0.00000000    
  0.937500000       2.50000004E-02  0.132185280      -1.87032495E-03  0.132198513    
  0.937500000       7.50000030E-02  0.373476028      -4.83147753E-03  0.373507291    
  0.937500000      0.125000000      0.590363085      -6.19404158E-03  0.590395570    
  0.937500000      0.175000012      0.781584203      -6.14234619E-03  0.781608343    
  0.937500000      0.224999994      0.946089983      -5.16260462E-03  0.946104050    
  0.937500000      0.275000006       1.08316553      -3.76894744E-03   1.08317208    
  0.937500000      0.324999988       1.19248462      -2.40725558E-03   1.19248712    
  0.937500000      0.375000000       1.27407372      -1.37431780E-03   1.27407444    
  0.937500000      0.425000012       1.32818341      -7.73832784E-04   1.32818365    
  0.937500000      0.475000024       1.35511327      -5.21655602E-04   1.35511339    
  0.937500000      0.524999976       1.35506272      -3.98626435E-04   1.35506272    
  0.937500000      0.575000048       1.32803273      -1.36357368E-04   1.32803273    
  0.937500000      0.625000000       1.27382970       4.83326003E-04   1.27382982    
  0.937500000      0.675000012       1.19215596       1.54260569E-03   1.19215691    
  0.937500000      0.725000024       1.08276999       2.93579814E-03   1.08277392    
  0.937500000      0.774999976      0.945654750       4.36349958E-03  0.945664823    
  0.937500000      0.825000048      0.781145632       5.37714548E-03  0.781164110    
  0.937500000      0.875000000      0.589969277       5.46072843E-03  0.589994550    
  0.937500000      0.925000012      0.373189420       4.13512718E-03  0.373212337    
  0.937500000      0.975000024      0.132077456       1.53297931E-03  0.132086352    
  0.937500000       1.00000000       0.00000000       0.00000000       0.00000000    
   1.06250000       0.00000000       0.00000000       0.00000000       0.00000000    
   1.06250000       2.50000004E-02  0.129876480      -1.96614768E-03  0.129891366    
   1.06250000       7.50000030E-02  0.366800606      -5.29761147E-03  0.366838872    
   1.06250000      0.125000000      0.579905272      -7.32787885E-03  0.579951584    
   1.06250000      0.175000012      0.768215895      -8.08575563E-03  0.768258452    
   1.06250000      0.224999994      0.930843353      -7.85182603E-03  0.930876434    
   1.06250000      0.275000006       1.06705570      -6.93326537E-03   1.06707823    
   1.06250000      0.324999988       1.17633200      -5.61921299E-03   1.17634547    
   1.06250000      0.375000000       1.25837135      -4.13879985E-03   1.25837815    
   1.06250000      0.425000012       1.31305110      -2.63409340E-03   1.31305373    
   1.06250000      0.475000024       1.34035254      -1.15787459E-03   1.34035301    
   1.06250000      0.524999976       1.34029090       3.03042005E-04   1.34029090    
   1.06250000      0.575000048       1.31286836       1.78611511E-03   1.31286955    
   1.06250000      0.625000000       1.25807679       3.30455671E-03   1.25808120    
   1.06250000      0.675000012       1.17593992       4.80435602E-03   1.17594969    
   1.06250000      0.725000024       1.06658959       6.14111498E-03   1.06660724    
   1.06250000      0.774999976      0.930336595       7.08387513E-03  0.930363595    
   1.06250000      0.825000048      0.767711759       7.34187756E-03  0.767746866    
   1.06250000      0.875000000      0.579458833       6.60687312E-03  0.579496503    
   1.06250000      0.925000012      0.366479009       4.60636523E-03  0.366507947    
   1.06250000      0.975000024      0.129755408       1.62988575E-03  0.129765645    
   1.06250000       1.00000000       0.00000000       0.00000000       0.00000000    
   1.18750000       0.00000000       0.00000000       0.00000000       0.00000000    
   1.18750000       2.50000004E-02  0.127900124      -2.00302643E-03  0.127915800    
   1.18750000       7.50000030E-02  0.361096561      -5.48510998E-03  0.361138225    
   1.18750000      0.125000000      0.570856690      -7.79950712E-03  0.570909977    
   1.18750000      0.175000012      0.756356239      -8.91506951E-03  0.756408751    
   1.18750000      0.224999994      0.916806996      -9.02327895E-03  0.916851401    
   1.18750000      0.275000006       1.05149889      -8.33514612E-03   1.05153191    
   1.18750000      0.324999988       1.15984511      -7.06118811E-03   1.15986657    
   1.18750000      0.375000000       1.24140835      -5.39082661E-03   1.24142003    
   1.18750000      0.425000012       1.29589784      -3.47820204E-03   1.29590249    
   1.18750000      0.475000024       1.32314491      -1.43917964E-03   1.32314575    
   1.18750000      0.524999976       1.32307601       6.39732578E-04   1.32307613    
   1.18750000      0.575000048       1.29569352       2.68320646E-03   1.29569626    
   1.18750000      0.625000000       1.24107862       4.60482668E-03   1.24108720    
   1.18750000      0.675000012       1.15940869       6.28796080E-03   1.15942574    
   1.18750000      0.725000024       1.05098426       7.57686095E-03   1.05101156    
   1.18750000      0.774999976      0.916252255       8.28067120E-03  0.916289628    
   1.18750000      0.825000048      0.755808949       8.18816759E-03  0.755853295    
   1.18750000      0.875000000      0.570376039       7.08835945E-03  0.570420086    
   1.18750000      0.925000012      0.360752463       4.79834387E-03  0.360784382    
   1.18750000      0.975000024      0.127770618       1.66786218E-03  0.127781495    
   1.18750000       1.00000000       0.00000000       0.00000000       0.00000000    
   1.31250000       0.00000000       0.00000000       0.00000000       0.00000000    
   1.31250000       2.50000004E-02  0.126046970      -2.01531104E-03  0.126063079    
   1.31250000       7.50000030E-02  0.355782986      -5.55216428E-03  0.355826318    
   1.31250000      0.125000000      0.562402427      -7.97664560E-03  0.562458992    
   1.31250000      0.175000012      0.745159268      -9.23779793E-03  0.745216548    
   1.31250000      0.224999994      0.903326511      -9.49172862E-03  0.903376400    
   1.31250000      0.275000006       1.03622043      -8.90735351E-03   1.03625870    
   1.31250000      0.324999988       1.14324021      -7.65817799E-03   1.14326584    
   1.31250000      0.375000000       1.22390044      -5.91311883E-03   1.22391474    
   1.31250000      0.425000012       1.27784181      -3.82949575E-03   1.27784753    
   1.31250000      0.475000024       1.30483198      -1.55021460E-03   1.30483294    
   1.31250000      0.524999976       1.30475855       7.93971762E-04   1.30475879    
   1.31250000      0.575000048       1.27762389       3.07624368E-03   1.27762759    
   1.31250000      0.625000000       1.22354901       5.16510801E-03   1.22355998    
   1.31250000      0.675000012       1.14277673       6.91736303E-03   1.14279759    
   1.31250000      0.725000024       1.03567624       8.17507133E-03   1.03570855    
   1.31250000      0.774999976      0.902743578       8.76853988E-03  0.902786195    
   1.31250000      0.825000048      0.744587779       8.52390658E-03  0.744636536    
   1.31250000      0.875000000      0.561903000       7.27271754E-03  0.561950088    
   1.31250000      0.925000012      0.355427206       4.86825546E-03  0.355460525    
   1.31250000      0.975000024      0.125913545       1.68073771E-03  0.125924766    
   1.31250000       1.00000000       0.00000000       0.00000000       0.00000000    
   1.43750000       0.00000000       0.00000000       0.00000000       0.00000000    
   1.43750000       2.50000004E-02  0.124230206      -2.01815087E-03  0.124246597    
   1.43750000       7.50000030E-02  0.350606918      -5.57091320E-03  0.350651175    
   1.43750000      0.125000000      0.554174542      -8.03186931E-03  0.554232776    
   1.43750000      0.175000012      0.734229207      -9.34549049E-03  0.734288692    
   1.43750000      0.224999994      0.890081346      -9.65527073E-03  0.890133679    
   1.43750000      0.275000006       1.02107024      -9.11332853E-03   1.02111089    
   1.43750000      0.324999988       1.12660062      -7.87734706E-03   1.12662816    
   1.43750000      0.375000000       1.20617557      -6.10679854E-03   1.20619106    
   1.43750000      0.425000012       1.25941241      -3.95865506E-03   1.25941861    
   1.43750000      0.475000024       1.28605628      -1.58585340E-03   1.28605723    
   1.43750000      0.524999976       1.28598022       8.61799461E-04   1.28598046    
   1.43750000      0.575000048       1.25918698       3.23598832E-03   1.25919116    
   1.43750000      0.625000000       1.20581245       5.38684241E-03   1.20582449    
   1.43750000      0.675000012       1.12612355       7.16065615E-03   1.12614632    
   1.43750000      0.725000024       1.02051163       8.40013940E-03   1.02054620    
   1.43750000      0.774999976      0.889484823       8.94606672E-03  0.889529824    
   1.43750000      0.825000048      0.733646929       8.64076242E-03  0.733697832    
   1.43750000      0.875000000      0.553667903       7.33286748E-03  0.553716481    
   1.43750000      0.925000012      0.350247622       4.88882093E-03  0.350281745    
   1.43750000      0.975000024      0.124096274       1.68387778E-03  0.124107704    
   1.43750000       1.00000000       0.00000000       0.00000000       0.00000000    
   1.56250000       0.00000000       0.00000000       0.00000000       0.00000000    
   1.56250000       2.50000004E-02  0.122418858      -2.01776600E-03  0.122435488    
   1.56250000       7.50000030E-02  0.345467985      -5.57219423E-03  0.345512927    
   1.56250000      0.125000000      0.546019077      -8.04093108E-03  0.546078265    
   1.56250000      0.175000012      0.723393381      -9.36900266E-03  0.723454058    
   1.56250000      0.224999994      0.876925945      -9.69664846E-03  0.876979530    
   1.56250000      0.275000006       1.00597465      -9.17024910E-03   1.00601637    
   1.56250000      0.324999988       1.10995579      -7.94124790E-03   1.10998416    
   1.56250000      0.375000000       1.18837452      -6.16410468E-03   1.18839049    
   1.56250000      0.425000012       1.24084496      -3.99521738E-03   1.24085140    
   1.56250000      0.475000024       1.26710713      -1.59174844E-03   1.26710808    
   1.56250000      0.524999976       1.26703000       8.90044554E-04   1.26703036    
   1.56250000      0.575000048       1.24061656       3.29381973E-03   1.24062097    
   1.56250000      0.625000000       1.18800712       5.46278991E-03   1.18801963    
   1.56250000      0.675000012       1.10947418       7.24040996E-03   1.10949779    
   1.56250000      0.725000024       1.00541210       8.47025216E-03   1.00544786    
   1.56250000      0.774999976      0.876326323       8.99740122E-03  0.876372516    
   1.56250000      0.825000048      0.722809792       8.67097173E-03  0.722861826    
   1.56250000      0.875000000      0.545512915       7.34592695E-03  0.545562387    
   1.56250000      0.925000012      0.345110208       4.89191199E-03  0.345144868    
   1.56250000      0.975000024      0.122286052       1.68390106E-03  0.122297645    
   1.56250000       1.00000000       0.00000000       0.00000000       0.00000000    
   1.68750000       0.00000000       0.00000000       0.00000000       0.00000000    
   1.68750000       2.50000004E-02  0.120604157      -2.01662071E-03  0.120621018    
   1.68750000       7.50000030E-02  0.340331227      -5.56882378E-03  0.340376765    
   1.68750000      0.125000000      0.537877560      -8.03631172E-03  0.537937582    
   1.68750000      0.175000012      0.712582469      -9.36559029E-03  0.712644041    
   1.68750000      0.224999994      0.863798738      -9.69665591E-03  0.863853157    
   1.68750000      0.275000006      0.990899801      -9.17432271E-03  0.990942240    
   1.68750000      0.324999988       1.09331381      -7.94811640E-03   1.09334278    
   1.68750000      0.375000000       1.17055309      -6.17098249E-03   1.17056930    
   1.68750000      0.425000012       1.22223616      -3.99865629E-03   1.22224271    
   1.68750000      0.475000024       1.24810469      -1.58850278E-03   1.24810576    
   1.68750000      0.524999976       1.24802756       9.00834799E-04   1.24802792    
   1.68750000      0.575000048       1.22200859       3.31040611E-03   1.22201312    
   1.68750000      0.625000000       1.17018676       5.48187224E-03   1.17019963    
   1.68750000      0.675000012       1.09283352       7.25795701E-03   1.09285760    
   1.68750000      0.725000024      0.990339994       8.48278031E-03  0.990376353    
   1.68750000      0.774999976      0.863202929       9.00356285E-03  0.863249898    
   1.68750000      0.825000048      0.712003589       8.67173355E-03  0.712056398    
   1.68750000      0.875000000      0.537376523       7.34363124E-03  0.537426710    
   1.68750000      0.925000012      0.339977622       4.88956692E-03  0.340012789    
   1.68750000      0.975000024      0.120473102       1.68309349E-03  0.120484859    
   1.68750000       1.00000000       0.00000000       0.00000000       0.00000000    
   1.81250000       0.00000000       0.00000000       0.00000000       0.00000000    
   1.81250000       2.50000004E-02  0.118784294      -2.01575668E-03  0.118801393    
   1.81250000       7.50000030E-02  0.335186779      -5.56549057E-03  0.335232973    
   1.81250000      0.125000000      0.529731393      -8.02987628E-03  0.529792249    
   1.81250000      0.175000012      0.701771975      -9.35662165E-03  0.701834381    
   1.81250000      0.224999994      0.850676060      -9.68655385E-03  0.850731194    
   1.81250000      0.275000006      0.975830913      -9.16462671E-03  0.975873947    
   1.81250000      0.324999988       1.07667542      -7.93973170E-03   1.07670474    
   1.81250000      0.375000000       1.15273070      -6.16399664E-03   1.15274715    
   1.81250000      0.425000012       1.20362186      -3.99290677E-03   1.20362854    
   1.81250000      0.475000024       1.22909307      -1.58398040E-03   1.22909415    
   1.81250000      0.524999976       1.22901714       9.04298271E-04   1.22901750    
   1.81250000      0.575000048       1.20339644       3.31258564E-03   1.20340097    
   1.81250000      0.625000000       1.15236843       5.48195187E-03   1.15238142    
   1.81250000      0.675000012       1.07620072       7.25525385E-03   1.07622516    
   1.81250000      0.725000024      0.975278020       8.47759470E-03  0.975314856    
   1.81250000      0.774999976      0.850088298       8.99682567E-03  0.850135922    