 TITLE= "TESTPLOT" 
 VARIABLES="x","y","fx","fy","magf" 
 ZONE T="1", I=          81 , J=          21
   0.00000000       0.00000000       1.00000000       0.00000000       1.00000000    
   0.00000000       2.50000004E-02   1.00000000       0.00000000       1.00000000    
   0.00000000       7.50000030E-02   1.00000000       0.00000000       1.00000000    
   0.00000000      0.125000000       1.00000000       0.00000000       1.00000000    
   0.00000000      0.175000012       1.00000000       0.00000000       1.00000000    
   0.00000000      0.224999994       1.00000000       0.00000000       1.00000000    
   0.00000000      0.275000006       1.00000000       0.00000000       1.00000000    
   0.00000000      0.324999988       1.00000000       0.00000000       1.00000000    
   0.00000000      0.375000000       1.00000000       0.00000000       1.00000000    
   0.00000000      0.425000012       1.00000000       0.00000000       1.00000000    
   0.00000000      0.475000024       1.00000000       0.00000000       1.00000000    
   0.00000000      0.524999976       1.00000000       0.00000000       1.00000000    
   0.00000000      0.575000048       1.00000000       0.00000000       1.00000000    
   0.00000000      0.625000000       1.00000000       0.00000000       1.00000000    
   0.00000000      0.675000012       1.00000000       0.00000000       1.00000000    
   0.00000000      0.725000024       1.00000000       0.00000000       1.00000000    
   0.00000000      0.774999976       1.00000000       0.00000000       1.00000000    
   0.00000000      0.825000048       1.00000000       0.00000000       1.00000000    
   0.00000000      0.875000000       1.00000000       0.00000000       1.00000000    
   0.00000000      0.925000012       1.00000000       0.00000000       1.00000000    
   0.00000000      0.975000024       1.00000000       0.00000000       1.00000000    
   0.00000000       1.00000000       1.00000000       0.00000000       1.00000000    
   6.25000000E-02   0.00000000      0.500000000       0.00000000      0.500000000    
   6.25000000E-02   2.50000004E-02  0.716383517      0.111084446      0.724944890    
   6.25000000E-02   7.50000030E-02  0.919975817      0.251638293      0.953770041    
   6.25000000E-02  0.125000000       1.01073503      0.274277449       1.04728866    
   6.25000000E-02  0.175000012       1.04560590      0.246670723       1.07430816    
   6.25000000E-02  0.224999994       1.05379331      0.201843351       1.07294965    
   6.25000000E-02  0.275000006       1.05049825      0.155059874       1.06188047    
   6.25000000E-02  0.324999988       1.04349303      0.112396747       1.04952884    
   6.25000000E-02  0.375000000       1.03656459       7.53072649E-02   1.03929651    
   6.25000000E-02  0.425000012       1.03141761       4.30478826E-02   1.03231549    
   6.25000000E-02  0.475000024       1.02873611       1.39194634E-02   1.02883029    
   6.25000000E-02  0.524999976       1.02874231      -1.41388783E-02   1.02883947    
   6.25000000E-02  0.575000048       1.03143597      -4.32767309E-02   1.03234351    
   6.25000000E-02  0.625000000       1.03659582      -7.55556375E-02   1.03934574    
   6.25000000E-02  0.675000012       1.04353881     -0.112675756       1.04960430    
   6.25000000E-02  0.725000024       1.05056071     -0.155381843       1.06198943    
   6.25000000E-02  0.774999976       1.05387211     -0.202220947       1.07309818    
   6.25000000E-02  0.825000048       1.04569912     -0.247115448       1.07450116    
   6.25000000E-02  0.875000000       1.01083720     -0.274796724       1.04752326    
   6.25000000E-02  0.925000012      0.920074105     -0.252221823      0.954018950    
   6.25000000E-02  0.975000024      0.716452956     -0.111389183      0.725060225    
   6.25000000E-02   1.00000000      0.500000000       0.00000000      0.500000000    
  0.187500000       0.00000000       0.00000000       0.00000000       0.00000000    
  0.187500000       2.50000004E-02  0.338625222       3.52740064E-02  0.340457469    
  0.187500000       7.50000030E-02  0.729776561      0.112051785      0.738328815    
  0.187500000      0.125000000      0.947890162      0.180424392      0.964908659    
  0.187500000      0.175000012       1.06123352      0.216722906       1.08313680    
  0.187500000      0.224999994       1.11300778      0.221423030       1.13481915    
  0.187500000      0.275000006       1.13065326      0.202270225       1.14860356    
  0.187500000      0.324999988       1.13129616      0.167562276       1.14363813    
  0.187500000      0.375000000       1.12530828      0.123845711       1.13210261    
  0.187500000      0.425000012       1.11870408       7.55060464E-02   1.12124932    
  0.187500000      0.475000024       1.11471486       2.51409132E-02   1.11499834    
  0.187500000      0.524999976       1.11473358      -2.57762987E-02   1.11503160    
  0.187500000      0.575000048       1.11875892      -7.61510283E-02   1.12134755    
  0.187500000      0.625000000       1.12539840     -0.124509051       1.13226497    
  0.187500000      0.675000012       1.13142085     -0.168249846       1.14386237    
  0.187500000      0.725000024       1.13081026     -0.202983379       1.14888382    
  0.187500000      0.774999976       1.11319041     -0.222158253       1.13514197    
  0.187500000      0.825000048       1.06143093     -0.217470884       1.08348012    
  0.187500000      0.875000000      0.948086619     -0.181170017      0.965241313    
  0.187500000      0.925000012      0.729947448     -0.112768337      0.738606751    
  0.187500000      0.975000024      0.338734061      -3.56205590E-02  0.340601802    
  0.187500000       1.00000000       0.00000000       0.00000000       0.00000000    
  0.312500000       0.00000000       0.00000000       0.00000000       0.00000000    
  0.312500000       2.50000004E-02  0.212860167       1.02664437E-02  0.213107601    
  0.312500000       7.50000030E-02  0.558456182       4.24246788E-02  0.560065329    
  0.312500000      0.125000000      0.813208342       8.61941725E-02  0.817763567    
  0.312500000      0.175000012      0.987275124      0.123102404      0.994920313    
  0.312500000      0.224999994       1.09793532      0.143769681       1.10730827    
  0.312500000      0.275000006       1.16289377      0.145812750       1.17199969    
  0.312500000      0.324999988       1.19744527      0.130923614       1.20458138    
  0.312500000      0.375000000       1.21355057      0.102642842       1.21788371    
  0.312500000      0.425000012       1.21978211       6.50138780E-02   1.22151351    
  0.312500000      0.475000024       1.22159314       2.19559968E-02   1.22179043    
  0.312500000      0.524999976       1.22161722      -2.28724014E-02   1.22183132    
  0.312500000      0.575000048       1.21985173      -6.59291744E-02   1.22163212    
  0.312500000      0.625000000       1.21366048     -0.103554353       1.21807027    
  0.312500000      0.675000012       1.19758821     -0.131827295       1.20482194    
  0.312500000      0.725000024       1.16305745     -0.146701351       1.17227304    
  0.312500000      0.774999976       1.09810531     -0.144632638       1.10758924    
  0.312500000      0.825000048      0.987434387     -0.123928897      0.995180905    
  0.312500000      0.875000000      0.813341975      -8.69751722E-02  0.817979157    
  0.312500000      0.925000012      0.558552325      -4.31477726E-02  0.560216427    
  0.312500000      0.975000024      0.212913498      -1.06113814E-02  0.213177755    
  0.312500000       1.00000000       0.00000000       0.00000000       0.00000000    
  0.437500000       0.00000000       0.00000000       0.00000000       0.00000000    
  0.437500000       2.50000004E-02  0.168348998       2.77277548E-03  0.168371826    
  0.437500000       7.50000030E-02  0.466714799       1.52178733E-02  0.466962814    
  0.437500000      0.125000000      0.715170026       3.71015929E-02  0.716131747    
  0.437500000      0.175000012      0.910276055       5.99588379E-02  0.912248611    
  0.437500000      0.224999994       1.05524135       7.69239441E-02   1.05804145    
  0.437500000      0.275000006       1.15727139       8.39648843E-02   1.16031337    
  0.437500000      0.324999988       1.22515035       7.97793195E-02   1.22774518    
  0.437500000      0.375000000       1.26745653       6.51741922E-02   1.26913106    
  0.437500000      0.425000012       1.29138422       4.23586071E-02   1.29207873    
  0.437500000      0.475000024       1.30204010       1.43558756E-02   1.30211926    
  0.437500000      0.524999976       1.30205691      -1.54113332E-02   1.30214810    
  0.437500000      0.575000048       1.29143131      -4.34029922E-02   1.29216051    
  0.437500000      0.625000000       1.26752615      -6.61965087E-02   1.26925361    
  0.437500000      0.675000012       1.22523212      -8.07687938E-02   1.22789145    
  0.437500000      0.725000024       1.15735149      -8.49114209E-02   1.16046214    
  0.437500000      0.774999976       1.05530691      -7.78191313E-02   1.05817223    
  0.437500000      0.825000048      0.910317123      -6.07971102E-02  0.912345052    
  0.437500000      0.875000000      0.715184927      -3.78817730E-02  0.716187477    
  0.437500000      0.925000012      0.466713697      -1.59367323E-02  0.466985703    
  0.437500000      0.975000024      0.168355227      -3.11582931E-03  0.168384060    
  0.437500000       1.00000000       0.00000000       0.00000000       0.00000000    
  0.562500000       0.00000000       0.00000000       0.00000000       0.00000000    
  0.562500000       2.50000004E-02  0.149424553       3.16384649E-05  0.149424553    
  0.562500000       7.50000030E-02  0.420424730       3.77464341E-03  0.420441657    
  0.562500000      0.125000000      0.657246470       1.33178150E-02  0.657381356    
  0.562500000      0.175000012      0.855974257       2.51009222E-02  0.856342256    
  0.562500000      0.224999994       1.01581252       3.53827626E-02   1.01642847    
  0.562500000      0.275000006       1.13877821       4.12672609E-02   1.13952565    
  0.562500000      0.324999988       1.22881031       4.11430746E-02   1.22949898    
  0.562500000      0.375000000       1.29067683       3.47532928E-02   1.29114461    
  0.562500000      0.425000012       1.32893848       2.30162069E-02   1.32913780    
  0.562500000      0.475000024       1.34711814       7.72321923E-03   1.34714031    
  0.562500000      0.524999976       1.34711969      -8.80817790E-03   1.34714854    
  0.562500000      0.575000048       1.32893872      -2.40861811E-02   1.32915699    
  0.562500000      0.625000000       1.29066896      -3.57942134E-02   1.29116523    
  0.562500000      0.675000012       1.22878695      -4.21425924E-02   1.22950935    
  0.562500000      0.725000024       1.13873112      -4.22148556E-02   1.13951337    
  0.562500000      0.774999976       1.01573777      -3.62720490E-02   1.01638520    
  0.562500000      0.825000048      0.855874419      -2.59300098E-02  0.856267095    
  0.562500000      0.875000000      0.657135725      -1.40895601E-02  0.657286763    
  0.562500000      0.925000012      0.420332074      -4.48857713E-03  0.420356035    
  0.562500000      0.975000024      0.149391815      -3.73288698E-04  0.149392277    
  0.562500000       1.00000000       0.00000000       0.00000000       0.00000000    
  0.687500000       0.00000000       0.00000000       0.00000000       0.00000000    
  0.687500000       2.50000004E-02  0.140252560      -1.12905039E-03  0.140257105    
  0.687500000       7.50000030E-02  0.396134734      -1.38609845E-03  0.396137148    
  0.687500000      0.125000000      0.623974562       1.83666567E-03  0.623977244    
  0.687500000      0.175000012      0.821056962       7.07929209E-03  0.821087480    
  0.687500000      0.224999994      0.985960186       1.24594644E-02  0.986038864    
  0.687500000      0.275000006       1.11875129       1.62830874E-02   1.11886978    
  0.687500000      0.324999988       1.22079253       1.73826199E-02   1.22091627    
  0.687500000      0.375000000       1.29426432       1.53025938E-02   1.29435480    
  0.687500000      0.425000012       1.34154606       1.03195710E-02   1.34158576    
  0.687500000      0.475000024       1.36461961       3.32632847E-03   1.36462367    
  0.687500000      0.524999976       1.36460257      -4.37850459E-03   1.36460960    
  0.687500000      0.575000048       1.34149051      -1.13563174E-02   1.34153855    
  0.687500000      0.625000000       1.29416752      -1.63104758E-02   1.29427028    
  0.687500000      0.675000012       1.22065377      -1.83504932E-02   1.22079170    
  0.687500000      0.725000024       1.11857009      -1.72025748E-02   1.11870229    
  0.687500000      0.774999976      0.985744238      -1.33254686E-02  0.985834301    
  0.687500000      0.825000048      0.820821464      -7.89071899E-03  0.820859432    
  0.687500000      0.875000000      0.623748779      -2.59735761E-03  0.623754203    
  0.687500000      0.925000012      0.395962477       6.77171978E-04  0.395963043    
  0.687500000      0.975000024      0.140189052       7.88603502E-04  0.140191272    
  0.687500000       1.00000000       0.00000000       0.00000000       0.00000000    
  0.812500000       0.00000000       0.00000000       0.00000000       0.00000000    
  0.812500000       2.50000004E-02  0.135272026      -1.64510112E-03  0.135282025    
  0.812500000       7.50000030E-02  0.382300109      -3.76123469E-03  0.382318616    
  0.812500000      0.125000000      0.603823066      -3.64875584E-03  0.603834093    
  0.812500000      0.175000012      0.798037469      -1.87305885E-03  0.798039675    
  0.812500000      0.224999994      0.963662982       6.27518399E-04  0.963663161    
  0.812500000      0.275000006       1.10014033       2.92370236E-03   1.10014427    
  0.812500000      0.324999988       1.20764422       4.28599212E-03   1.20765185    
  0.812500000      0.375000000       1.28691661       4.32357658E-03   1.28692389    
  0.812500000      0.425000012       1.33895946       3.03962594E-03   1.33896291    
  0.812500000      0.475000024       1.36469138       7.97790475E-04   1.36469162    
  0.812500000      0.524999976       1.36465633      -1.78836100E-03   1.36465752    
  0.812500000      0.575000048       1.33885217      -4.01713373E-03   1.33885825    
  0.812500000      0.625000000       1.28673792      -5.27653191E-03   1.28674877    
  0.812500000      0.675000012       1.20740032      -5.20471204E-03   1.20741153    
  0.812500000      0.725000024       1.09984016      -3.80149949E-03   1.09984672    
  0.812500000      0.774999976      0.963324428      -1.46116293E-03  0.963325560    
  0.812500000      0.825000048      0.797687054       1.08371477E-03  0.797687769    
  0.812500000      0.875000000      0.603501678       2.90072896E-03  0.603508651    
  0.812500000      0.925000012      0.382062525       3.05770477E-03  0.382074744    
  0.812500000      0.975000024      0.135183573       1.30581087E-03  0.135189876    
  0.812500000       1.00000000       0.00000000       0.00000000       0.00000000    
  0.937500000       0.00000000       0.00000000       0.00000000       0.00000000    
  0.937500000       2.50000004E-02  0.132151306      -1.87258364E-03  0.132164568    
  0.937500000       7.50000030E-02  0.373374254      -4.83661471E-03  0.373405576    
  0.937500000      0.125000000      0.590227365      -6.19945116E-03  0.590259910    
  0.937500000      0.175000012      0.781438828      -6.14692504E-03  0.781463027    
  0.937500000      0.224999994      0.945945621      -5.16646402E-03  0.945959747    
  0.937500000      0.275000006       1.08302355      -3.77255166E-03   1.08303010    
  0.937500000      0.324999988       1.19234443      -2.41081160E-03   1.19234681    
  0.937500000      0.375000000       1.27393508      -1.37727789E-03   1.27393579    
  0.937500000      0.425000012       1.32804489      -7.75747874E-04   1.32804513    
  0.937500000      0.475000024       1.35497546      -5.22795192E-04   1.35497558    
  0.937500000      0.524999976       1.35492504      -3.98515549E-04   1.35492504    
  0.937500000      0.575000048       1.32789493      -1.34978123E-04   1.32789493    
  0.937500000      0.625000000       1.27369022       4.85005177E-04   1.27369034    
  0.937500000      0.675000012       1.19201589       1.54423073E-03   1.19201684    
  0.937500000      0.725000024       1.08262801       2.93784449E-03   1.08263195    
  0.937500000      0.774999976      0.945510209       4.36648168E-03  0.945520282    
  0.937500000      0.825000048      0.780999422       5.38096391E-03  0.781017959    
  0.937500000      0.875000000      0.589832664       5.46504185E-03  0.589857996    
  0.937500000      0.925000012      0.373087168       4.13909694E-03  0.373110145    
  0.937500000      0.975000024      0.132043645       1.53472472E-03  0.132052571    
  0.937500000       1.00000000       0.00000000       0.00000000       0.00000000    
   1.06250000       0.00000000       0.00000000       0.00000000       0.00000000    
   1.06250000       2.50000004E-02  0.129839331      -1.96822011E-03  0.129854247    
   1.06250000       7.50000030E-02  0.366686553      -5.30224573E-03  0.366724908    
   1.06250000      0.125000000      0.579752445      -7.33283535E-03  0.579798818    
   1.06250000      0.175000012      0.768052042      -8.09011050E-03  0.768094659    
   1.06250000      0.224999994      0.930680633      -7.85546564E-03  0.930713773    
   1.06250000      0.275000006       1.06689584      -6.93650823E-03   1.06691837    
   1.06250000      0.324999988       1.17617416      -5.62214013E-03   1.17618763    
   1.06250000      0.375000000       1.25821471      -4.14102478E-03   1.25822151    
   1.06250000      0.425000012       1.31289482      -2.63567455E-03   1.31289744    
   1.06250000      0.475000024       1.34019697      -1.15913362E-03   1.34019744    
   1.06250000      0.524999976       1.34013546       3.02437809E-04   1.34013546    
   1.06250000      0.575000048       1.31271315       1.78663759E-03   1.31271434    
   1.06250000      0.625000000       1.25792003       3.30592180E-03   1.25792432    
   1.06250000      0.675000012       1.17578220       4.80594300E-03   1.17579210    
   1.06250000      0.725000024       1.06642962       6.14289194E-03   1.06644738    
   1.06250000      0.774999976      0.930173755       7.08641112E-03  0.930200756    
   1.06250000      0.825000048      0.767547727       7.34531134E-03  0.767582834    
   1.06250000      0.875000000      0.579305768       6.61087502E-03  0.579343438    
   1.06250000      0.925000012      0.366364866       4.61011101E-03  0.366393864    
   1.06250000      0.975000024      0.129718274       1.63149578E-03  0.129728541    
   1.06250000       1.00000000       0.00000000       0.00000000       0.00000000    
   1.18750000       0.00000000       0.00000000       0.00000000       0.00000000    
   1.18750000       2.50000004E-02  0.127858773      -2.00529769E-03  0.127874494    
   1.18750000       7.50000030E-02  0.360969663      -5.49022248E-03  0.361011416    
   1.18750000      0.125000000      0.570686579      -7.80482031E-03  0.570739925    
   1.18750000      0.175000012      0.756174088      -8.91966373E-03  0.756226718    
   1.18750000      0.224999994      0.916626096      -9.02711507E-03  0.916670561    
   1.18750000      0.275000006       1.05132127      -8.33848678E-03   1.05135429    
   1.18750000      0.324999988       1.15966964      -7.06434716E-03   1.15969110    
   1.18750000      0.375000000       1.24123442      -5.39378077E-03   1.24124610    
   1.18750000      0.425000012       1.29572439      -3.48050473E-03   1.29572904    
   1.18750000      0.475000024       1.32297182      -1.44026696E-03   1.32297254    
   1.18750000      0.524999976       1.32290316       6.39817328E-04   1.32290328    
   1.18750000      0.575000048       1.29552042       2.68423324E-03   1.29552317    
   1.18750000      0.625000000       1.24090433       4.60635964E-03   1.24091291    
   1.18750000      0.675000012       1.15923333       6.28978387E-03   1.15925038    
   1.18750000      0.725000024       1.05080640       7.57918833E-03   1.05083370    
   1.18750000      0.774999976      0.916070759       8.28380324E-03  0.916108191    
   1.18750000      0.825000048      0.755626559       8.19239952E-03  0.755670965    
   1.18750000      0.875000000      0.570205569       7.09333643E-03  0.570249677    
   1.18750000      0.925000012      0.360625446       4.80269641E-03  0.360657424    
   1.18750000      0.975000024      0.127729133       1.66964089E-03  0.127740055    
   1.18750000       1.00000000       0.00000000       0.00000000       0.00000000    
   1.31250000       0.00000000       0.00000000       0.00000000       0.00000000    
   1.31250000       2.50000004E-02  0.126001209      -2.01727846E-03  0.126017362    
   1.31250000       7.50000030E-02  0.355643332      -5.55686932E-03  0.355686724    
   1.31250000      0.125000000      0.562215090      -7.98206776E-03  0.562271774    
   1.31250000      0.175000012      0.744959295      -9.24283173E-03  0.745016634    
   1.31250000      0.224999994      0.903127551      -9.49583109E-03  0.903177500    
   1.31250000      0.275000006       1.03602481      -8.91056284E-03   1.03606319    
   1.31250000      0.324999988       1.14304698      -7.66103994E-03   1.14307261    
   1.31250000      0.375000000       1.22370851      -5.91587368E-03   1.22372282    
   1.31250000      0.425000012       1.27765024      -3.83160217E-03   1.27765596    
   1.31250000      0.475000024       1.30464089      -1.55093707E-03   1.30464184    
   1.31250000      0.524999976       1.30456710       7.94383755E-04   1.30456734    
   1.31250000      0.575000048       1.27743196       3.07719409E-03   1.27743566    
   1.31250000      0.625000000       1.22335649       5.16634155E-03   1.22336745    
   1.31250000      0.675000012       1.14258325       6.91912789E-03   1.14260423    
   1.31250000      0.725000024       1.03548002       8.17766599E-03   1.03551233    
   1.31250000      0.774999976      0.902542949       8.77195876E-03  0.902585566    
   1.31250000      0.825000048      0.744386315       8.52816086E-03  0.744435191    
   1.31250000      0.875000000      0.561714768       7.27764238E-03  0.561761916    
   1.31250000      0.925000012      0.355286837       4.87264339E-03  0.355320245    
   1.31250000      0.975000024      0.125867188       1.68252760E-03  0.125878438    
   1.31250000       1.00000000       0.00000000       0.00000000       0.00000000    
   1.43750000       0.00000000       0.00000000       0.00000000       0.00000000    
   1.43750000       2.50000004E-02  0.124181472      -2.02003028E-03  0.124197900    
   1.43750000       7.50000030E-02  0.350455761      -5.57537284E-03  0.350500107    
   1.43750000      0.125000000      0.553971112      -8.03698972E-03  0.554029405    
   1.43750000      0.175000012      0.734011590      -9.35033895E-03  0.734071136    
   1.43750000      0.224999994      0.889864743      -9.65941884E-03  0.889917135    
   1.43750000      0.275000006       1.02085710      -9.11672693E-03   1.02089775    
   1.43750000      0.324999988       1.12639034      -7.88037293E-03   1.12641788    
   1.43750000      0.375000000       1.20596600      -6.10926049E-03   1.20598149    
   1.43750000      0.425000012       1.25920367      -3.96041153E-03   1.25920999    
   1.43750000      0.475000024       1.28584778      -1.58705120E-03   1.28584874    
   1.43750000      0.524999976       1.28577113       8.61445733E-04   1.28577137    
   1.43750000      0.575000048       1.25897741       3.23640904E-03   1.25898159    
   1.43750000      0.625000000       1.20560241       5.38773555E-03   1.20561445    
   1.43750000      0.675000012       1.12591219       7.16224918E-03   1.12593496    
   1.43750000      0.725000024       1.02029765       8.40243511E-03   1.02033222    
   1.43750000      0.774999976      0.889266372       8.94922204E-03  0.889311433    
   1.43750000      0.825000048      0.733427405       8.64497852E-03  0.733478367    
   1.43750000      0.875000000      0.553463161       7.33781513E-03  0.553511798    
   1.43750000      0.925000012      0.350094974       4.89335787E-03  0.350129187    
   1.43750000      0.975000024      0.124046110       1.68578443E-03  0.124057561    
   1.43750000       1.00000000       0.00000000       0.00000000       0.00000000    
   1.56250000       0.00000000       0.00000000       0.00000000       0.00000000    
   1.56250000       2.50000004E-02  0.122367293      -2.02004076E-03  0.122383960    
   1.56250000       7.50000030E-02  0.345305681      -5.57736866E-03  0.345350713    
   1.56250000      0.125000000      0.545800328      -8.04650225E-03  0.545859635    
   1.56250000      0.175000012      0.723159373      -9.37394332E-03  0.723220110    
   1.56250000      0.224999994      0.876692772      -9.70098004E-03  0.876746416    
   1.56250000      0.275000006       1.00574541      -9.17394087E-03   1.00578725    
   1.56250000      0.324999988       1.10972977      -7.94399530E-03   1.10975814    
   1.56250000      0.375000000       1.18814909      -6.16637804E-03   1.18816507    
   1.56250000      0.425000012       1.24062037      -3.99718527E-03   1.24062681    
   1.56250000      0.475000024       1.26688230      -1.59278617E-03   1.26688325    
   1.56250000      0.524999976       1.26680493       8.89621268E-04   1.26680529    
   1.56250000      0.575000048       1.24039125       3.29379225E-03   1.24039567    
   1.56250000      0.625000000       1.18778145       5.46366535E-03   1.18779397    
   1.56250000      0.675000012       1.10924721       7.24185351E-03   1.10927081    
   1.56250000      0.725000024       1.00518227       8.47202353E-03   1.00521791    
   1.56250000      0.774999976      0.876091957       8.99989530E-03  0.876138210    
   1.56250000      0.825000048      0.722574115       8.67433287E-03  0.722626150    
   1.56250000      0.875000000      0.545292974       7.34972395E-03  0.545342505    
   1.56250000      0.925000012      0.344946355       4.89533693E-03  0.344981074    
   1.56250000      0.975000024      0.122233078       1.68542785E-03  0.122244693    
   1.56250000       1.00000000       0.00000000       0.00000000       0.00000000    
   1.68750000       0.00000000       0.00000000       0.00000000       0.00000000    
   1.68750000       2.50000004E-02  0.120549172      -2.01914832E-03  0.120566085    
   1.68750000       7.50000030E-02  0.340157747      -5.57448529E-03  0.340203434    
   1.68750000      0.125000000      0.537643790      -8.04236811E-03  0.537703931    
   1.68750000      0.175000012      0.712332487      -9.37075447E-03  0.712394118    
   1.68750000      0.224999994      0.863549590      -9.70108435E-03  0.863604069    
   1.68750000      0.275000006      0.990655422      -9.17834602E-03  0.990697920    
   1.68750000      0.324999988       1.09307289      -7.95127451E-03   1.09310186    
   1.68750000      0.375000000       1.17031312      -6.17348216E-03   1.17032945    
   1.68750000      0.425000012       1.22199702      -4.00066748E-03   1.22200358    
   1.68750000      0.475000024       1.24786520      -1.58976135E-03   1.24786615    
   1.68750000      0.524999976       1.24778795       9.00170999E-04   1.24778831    
   1.68750000      0.575000048       1.22176886       3.31030553E-03   1.22177339    
   1.68750000      0.625000000       1.16994667       5.48263500E-03   1.16995955    
   1.68750000      0.675000012       1.09259224       7.25918170E-03   1.09261632    
   1.68750000      0.725000024      0.990095019       8.48431140E-03  0.990131378    
   1.68750000      0.774999976      0.862953067       9.00572538E-03  0.863000035    
   1.68750000      0.825000048      0.711752295       8.67473893E-03  0.711805165    
   1.68750000      0.875000000      0.537141919       7.34732952E-03  0.537192166    
   1.68750000      0.925000012      0.339803368       4.89299465E-03  0.339838594    
   1.68750000      0.975000024      0.120417602       1.68459583E-03  0.120429382    
   1.68750000       1.00000000       0.00000000       0.00000000       0.00000000    
   1.81250000       0.00000000       0.00000000       0.00000000       0.00000000    
   1.81250000       2.50000004E-02  0.118725955      -2.01788265E-03  0.118743099    
   1.81250000       7.50000030E-02  0.335002303      -5.57049317E-03  0.335048616    
   1.81250000      0.125000000      0.529482603      -8.03528354E-03  0.529543519    
   1.81250000      0.175000012      0.701505542      -9.36135836E-03  0.701568007    
   1.81250000      0.224999994      0.850410819      -9.69065260E-03  0.850466013    
   1.81250000      0.275000006      0.975570798      -9.16810054E-03  0.975613832    
   1.81250000      0.324999988       1.07641888      -7.94261321E-03   1.07644820    
   1.81250000      0.375000000       1.15247583      -6.16645534E-03   1.15249240    
   1.81250000      0.425000012       1.20336735      -3.99489468E-03   1.20337403    
   1.81250000      0.475000024       1.22883868      -1.58539170E-03   1.22883964    
   1.81250000      0.524999976       1.22876251       9.03328066E-04   1.22876287    
   1.81250000      0.575000048       1.20314169       3.31202289E-03   1.20314622    
   1.81250000      0.625000000       1.15211344       5.48181031E-03   1.15212643    
   1.81250000      0.675000012       1.07594442       7.25538563E-03   1.07596898    
   1.81250000      0.725000024      0.975018203       8.47818237E-03  0.975055039    
   1.81250000      0.774999976      0.849823356       8.99836235E-03  0.849870980    