 TITLE= "TESTPLOT" 
 VARIABLES="x","y","fx","fy","magf" 
 ZONE T="1", I=          81 , J=          21
   0.00000000       0.00000000       1.00000000       0.00000000       1.00000000    
   0.00000000       2.50000004E-02   1.00000000       0.00000000       1.00000000    
   0.00000000       7.50000030E-02   1.00000000       0.00000000       1.00000000    
   0.00000000      0.125000000       1.00000000       0.00000000       1.00000000    
   0.00000000      0.175000012       1.00000000       0.00000000       1.00000000    
   0.00000000      0.224999994       1.00000000       0.00000000       1.00000000    
   0.00000000      0.275000006       1.00000000       0.00000000       1.00000000    
   0.00000000      0.324999988       1.00000000       0.00000000       1.00000000    
   0.00000000      0.375000000       1.00000000       0.00000000       1.00000000    
   0.00000000      0.425000012       1.00000000       0.00000000       1.00000000    
   0.00000000      0.475000024       1.00000000       0.00000000       1.00000000    
   0.00000000      0.524999976       1.00000000       0.00000000       1.00000000    
   0.00000000      0.575000048       1.00000000       0.00000000       1.00000000    
   0.00000000      0.625000000       1.00000000       0.00000000       1.00000000    
   0.00000000      0.675000012       1.00000000       0.00000000       1.00000000    
   0.00000000      0.725000024       1.00000000       0.00000000       1.00000000    
   0.00000000      0.774999976       1.00000000       0.00000000       1.00000000    
   0.00000000      0.825000048       1.00000000       0.00000000       1.00000000    
   0.00000000      0.875000000       1.00000000       0.00000000       1.00000000    
   0.00000000      0.925000012       1.00000000       0.00000000       1.00000000    
   0.00000000      0.975000024       1.00000000       0.00000000       1.00000000    
   0.00000000       1.00000000       1.00000000       0.00000000       1.00000000    
   6.25000000E-02   0.00000000      0.500000000       0.00000000      0.500000000    
   6.25000000E-02   2.50000004E-02  0.716381609      0.111084983      0.724943101    
   6.25000000E-02   7.50000030E-02  0.919974327      0.251639754      0.953768969    
   6.25000000E-02  0.125000000       1.01073432      0.274279386       1.04728842    
   6.25000000E-02  0.175000012       1.04560542      0.246672124       1.07430804    
   6.25000000E-02  0.224999994       1.05379319      0.201843798       1.07294965    
   6.25000000E-02  0.275000006       1.05049825      0.155059874       1.06188047    
   6.25000000E-02  0.324999988       1.04349303      0.112396672       1.04952872    
   6.25000000E-02  0.375000000       1.03656447       7.53069073E-02   1.03929639    
   6.25000000E-02  0.425000012       1.03141749       4.30472791E-02   1.03231537    
   6.25000000E-02  0.475000024       1.02873611       1.39191840E-02   1.02883029    
   6.25000000E-02  0.524999976       1.02874184      -1.41384713E-02   1.02883899    
   6.25000000E-02  0.575000048       1.03143561      -4.32760566E-02   1.03234303    
   6.25000000E-02  0.625000000       1.03659570      -7.55556449E-02   1.03934562    
   6.25000000E-02  0.675000012       1.04353881     -0.112676315       1.04960430    
   6.25000000E-02  0.725000024       1.05056000     -0.155382633       1.06198871    
   6.25000000E-02  0.774999976       1.05387151     -0.202222303       1.07309794    
   6.25000000E-02  0.825000048       1.04569864     -0.247117519       1.07450116    
   6.25000000E-02  0.875000000       1.01083612     -0.274798751       1.04752278    
   6.25000000E-02  0.925000012      0.920072436     -0.252223194      0.954017699    
   6.25000000E-02  0.975000024      0.716450930     -0.111389734      0.725058317    
   6.25000000E-02   1.00000000      0.500000000       0.00000000      0.500000000    
  0.187500000       0.00000000       0.00000000       0.00000000       0.00000000    
  0.187500000       2.50000004E-02  0.338619679       3.52743603E-02  0.340452015    
  0.187500000       7.50000030E-02  0.729771614      0.112052977      0.738324106    
  0.187500000      0.125000000      0.947887540      0.180426240      0.964906394    
  0.187500000      0.175000012       1.06123257      0.216724783       1.08313620    
  0.187500000      0.224999994       1.11300802      0.221424401       1.13481963    
  0.187500000      0.275000006       1.13065350      0.202271089       1.14860392    
  0.187500000      0.324999988       1.13129616      0.167563066       1.14363825    
  0.187500000      0.375000000       1.12530756      0.123846099       1.13210201    
  0.187500000      0.425000012       1.11870384       7.55057633E-02   1.12124908    
  0.187500000      0.475000024       1.11471462       2.51405723E-02   1.11499810    
  0.187500000      0.524999976       1.11473286      -2.57764757E-02   1.11503088    
  0.187500000      0.575000048       1.11875844      -7.61518255E-02   1.12134719    
  0.187500000      0.625000000       1.12539792     -0.124510624       1.13226473    
  0.187500000      0.675000012       1.13142085     -0.168251604       1.14386261    
  0.187500000      0.725000024       1.13080990     -0.202985421       1.14888382    
  0.187500000      0.774999976       1.11319029     -0.222160771       1.13514233    
  0.187500000      0.825000048       1.06143022     -0.217473686       1.08348000    
  0.187500000      0.875000000      0.948084235     -0.181172639      0.965239465    
  0.187500000      0.925000012      0.729942918     -0.112770021      0.738602519    
  0.187500000      0.975000024      0.338729024      -3.56210582E-02  0.340596855    
  0.187500000       1.00000000       0.00000000       0.00000000       0.00000000    
  0.312500000       0.00000000       0.00000000       0.00000000       0.00000000    
  0.312500000       2.50000004E-02  0.212849975       1.02669792E-02  0.213097438    
  0.312500000       7.50000030E-02  0.558446288       4.24262695E-02  0.560055614    
  0.312500000      0.125000000      0.813202679       8.61963853E-02  0.817758143    
  0.312500000      0.175000012      0.987272680      0.123104595      0.994918108    
  0.312500000      0.224999994       1.09793472      0.143771604       1.10730803    
  0.312500000      0.275000006       1.16289306      0.145814359       1.17199922    
  0.312500000      0.324999988       1.19744444      0.130924687       1.20458055    
  0.312500000      0.375000000       1.21354902      0.102643222       1.21788204    
  0.312500000      0.425000012       1.21978104       6.50138184E-02   1.22151244    
  0.312500000      0.475000024       1.22159195       2.19557043E-02   1.22178924    
  0.312500000      0.524999976       1.22161627      -2.28729192E-02   1.22183037    
  0.312500000      0.575000048       1.21985137      -6.59299642E-02   1.22163177    
  0.312500000      0.625000000       1.21366036     -0.103555635       1.21807027    
  0.312500000      0.675000012       1.19758844     -0.131829053       1.20482242    
  0.312500000      0.725000024       1.16305816     -0.146703422       1.17227399    
  0.312500000      0.774999976       1.09810638     -0.144635007       1.10759056    
  0.312500000      0.825000048      0.987434149     -0.123931423      0.995180964    
  0.312500000      0.875000000      0.813338757      -8.69774222E-02  0.817976177    
  0.312500000      0.925000012      0.558544457      -4.31495830E-02  0.560208738    
  0.312500000      0.975000024      0.212904304      -1.06121954E-02  0.213168621    
  0.312500000       1.00000000       0.00000000       0.00000000       0.00000000    
  0.437500000       0.00000000       0.00000000       0.00000000       0.00000000    
  0.437500000       2.50000004E-02  0.168332905       2.77313637E-03  0.168355748    
  0.437500000       7.50000030E-02  0.466699839       1.52191352E-02  0.466947913    
  0.437500000      0.125000000      0.715161443       3.71037312E-02  0.716123283    
  0.437500000      0.175000012      0.910272241       5.99613935E-02  0.912244976    
  0.437500000      0.224999994       1.05523968       7.69260377E-02   1.05803990    
  0.437500000      0.275000006       1.15726995       8.39661807E-02   1.16031206    
  0.437500000      0.324999988       1.22514904       7.97804967E-02   1.22774386    
  0.437500000      0.375000000       1.26745462       6.51757047E-02   1.26912928    
  0.437500000      0.425000012       1.29138172       4.23602089E-02   1.29207623    
  0.437500000      0.475000024       1.30203772       1.43571133E-02   1.30211687    
  0.437500000      0.524999976       1.30205512      -1.54107045E-02   1.30214632    
  0.437500000      0.575000048       1.29143000      -4.34031300E-02   1.29215920    
  0.437500000      0.625000000       1.26752520      -6.61973506E-02   1.26925266    
  0.437500000      0.675000012       1.22523141      -8.07702169E-02   1.22789085    
  0.437500000      0.725000024       1.15735126      -8.49133879E-02   1.16046202    
  0.437500000      0.774999976       1.05530703      -7.78215826E-02   1.05817258    
  0.437500000      0.825000048      0.910315216      -6.07997701E-02  0.912343383    
  0.437500000      0.875000000      0.715178609      -3.78842019E-02  0.716181338    
  0.437500000      0.925000012      0.466700584      -1.59383342E-02  0.466972679    
  0.437500000      0.975000024      0.168340206      -3.11634759E-03  0.168369055    
  0.437500000       1.00000000       0.00000000       0.00000000       0.00000000    
  0.562500000       0.00000000       0.00000000       0.00000000       0.00000000    
  0.562500000       2.50000004E-02  0.149404272       3.19926876E-05  0.149404272    
  0.562500000       7.50000030E-02  0.420406103       3.77589418E-03  0.420423061    
  0.562500000      0.125000000      0.657236457       1.33198332E-02  0.657371402    
  0.562500000      0.175000012      0.855970263       2.51032747E-02  0.856338322    
  0.562500000      0.224999994       1.01581156       3.53850685E-02   1.01642764    
  0.562500000      0.275000006       1.13877797       4.12692577E-02   1.13952553    
  0.562500000      0.324999988       1.22880971       4.11448069E-02   1.22949839    
  0.562500000      0.375000000       1.29067576       3.47547233E-02   1.29114366    
  0.562500000      0.425000012       1.32893658       2.30172686E-02   1.32913589    
  0.562500000      0.475000024       1.34711599       7.72378966E-03   1.34713805    
  0.562500000      0.524999976       1.34711802      -8.80812481E-03   1.34714687    
  0.562500000      0.575000048       1.32893729      -2.40865089E-02   1.32915556    
  0.562500000      0.625000000       1.29066765      -3.57949138E-02   1.29116392    
  0.562500000      0.675000012       1.22878540      -4.21436839E-02   1.22950792    
  0.562500000      0.725000024       1.13872993      -4.22167815E-02   1.13951218    
  0.562500000      0.774999976       1.01573658      -3.62748578E-02   1.01638412    
  0.562500000      0.825000048      0.855870605      -2.59330571E-02  0.856263399    
  0.562500000      0.875000000      0.657126188      -1.40923113E-02  0.657277286    
  0.562500000      0.925000012      0.420313984      -4.49031591E-03  0.420337975    
  0.562500000      0.975000024      0.149372637      -3.73806542E-04  0.149373099    
  0.562500000       1.00000000       0.00000000       0.00000000       0.00000000    
  0.687500000       0.00000000       0.00000000       0.00000000       0.00000000    
  0.687500000       2.50000004E-02  0.140229613      -1.12782675E-03  0.140234143    
  0.687500000       7.50000030E-02  0.396113336      -1.38307398E-03  0.396115750    
  0.687500000      0.125000000      0.623963237       1.84038829E-03  0.623965979    
  0.687500000      0.175000012      0.821052849       7.08292704E-03  0.821083426    
  0.687500000      0.224999994      0.985959828       1.24626337E-02  0.986038566    
  0.687500000      0.275000006       1.11875153       1.62857566E-02   1.11887014    
  0.687500000      0.324999988       1.22079301       1.73846446E-02   1.22091675    
  0.687500000      0.375000000       1.29426432       1.53039852E-02   1.29435480    
  0.687500000      0.425000012       1.34154522       1.03204045E-02   1.34158492    
  0.687500000      0.475000024       1.36461878       3.32652824E-03   1.36462283    
  0.687500000      0.524999976       1.36460209      -4.37900703E-03   1.36460912    
  0.687500000      0.575000048       1.34148991      -1.13575254E-02   1.34153795    
  0.687500000      0.625000000       1.29416728      -1.63122956E-02   1.29427004    
  0.687500000      0.675000012       1.22065306      -1.83529798E-02   1.22079110    
  0.687500000      0.725000024       1.11856961      -1.72053464E-02   1.11870193    
  0.687500000      0.774999976      0.985743225      -1.33284219E-02  0.985833287    
  0.687500000      0.825000048      0.820817590      -7.89422728E-03  0.820855558    
  0.687500000      0.875000000      0.623737931      -2.60068267E-03  0.623743355    
  0.687500000      0.925000012      0.395941198       6.74809737E-04  0.395941794    
  0.687500000      0.975000024      0.140165865       7.87661935E-04  0.140168071    
  0.687500000       1.00000000       0.00000000       0.00000000       0.00000000    
  0.812500000       0.00000000       0.00000000       0.00000000       0.00000000    
  0.812500000       2.50000004E-02  0.135246724      -1.64445001E-03  0.135256723    
  0.812500000       7.50000030E-02  0.382276177      -3.75913479E-03  0.382294655    
  0.812500000      0.125000000      0.603810668      -3.64545546E-03  0.603821695    
  0.812500000      0.175000012      0.798033357      -1.86919561E-03  0.798035562    
  0.812500000      0.224999994      0.963662684       6.31136936E-04  0.963662922    
  0.812500000      0.275000006       1.10014069       2.92677549E-03   1.10014462    
  0.812500000      0.324999988       1.20764446       4.28868225E-03   1.20765209    
  0.812500000      0.375000000       1.28691590       4.32565762E-03   1.28692317    
  0.812500000      0.425000012       1.33895850       3.04082828E-03   1.33896196    
  0.812500000      0.475000024       1.36469054       7.97852757E-04   1.36469078    
  0.812500000      0.524999976       1.36465538      -1.78930245E-03   1.36465657    
  0.812500000      0.575000048       1.33885109      -4.01896518E-03   1.33885717    
  0.812500000      0.625000000       1.28673756      -5.27893240E-03   1.28674841    
  0.812500000      0.675000012       1.20740008      -5.20767085E-03   1.20741129    
  0.812500000      0.725000024       1.09984040      -3.80503852E-03   1.09984696    
  0.812500000      0.774999976      0.963324189      -1.46468845E-03  0.963325322    
  0.812500000      0.825000048      0.797683656       1.08039053E-03  0.797684371    
  0.812500000      0.875000000      0.603490233       2.89787492E-03  0.603497207    
  0.812500000      0.925000012      0.382038742       3.05593992E-03  0.382050961    
  0.812500000      0.975000024      0.135157079       1.30529259E-03  0.135163382    
  0.812500000       1.00000000       0.00000000       0.00000000       0.00000000    
  0.937500000       0.00000000       0.00000000       0.00000000       0.00000000    
  0.937500000       2.50000004E-02  0.132122695      -1.87183369E-03  0.132135957    
  0.937500000       7.50000030E-02  0.373347014      -4.83456906E-03  0.373378336    
  0.937500000      0.125000000      0.590213537      -6.19675592E-03  0.590246022    
  0.937500000      0.175000012      0.781434417      -6.14422932E-03  0.781458557    
  0.937500000      0.224999994      0.945945144      -5.16409939E-03  0.945959210    
  0.937500000      0.275000006       1.08302414      -3.77008552E-03   1.08303070    
  0.937500000      0.324999988       1.19234467      -2.40825070E-03   1.19234717    
  0.937500000      0.375000000       1.27393460      -1.37543539E-03   1.27393532    
  0.937500000      0.425000012       1.32804394      -7.74855958E-04   1.32804418    
  0.937500000      0.475000024       1.35497451      -5.22661896E-04   1.35497463    
  0.937500000      0.524999976       1.35492349      -3.99101991E-04   1.35492349    
  0.937500000      0.575000048       1.32789397      -1.36484217E-04   1.32789397    
  0.937500000      0.625000000       1.27369022       4.83136682E-04   1.27369034    
  0.937500000      0.675000012       1.19201589       1.54241186E-03   1.19201684    
  0.937500000      0.725000024       1.08262885       2.93569593E-03   1.08263278    
  0.937500000      0.774999976      0.945510268       4.36388981E-03  0.945520341    
  0.937500000      0.825000048      0.780995965       5.37814107E-03  0.781014502    
  0.937500000      0.875000000      0.589820206       5.46237919E-03  0.589845479    
  0.937500000      0.925000012      0.373060524       4.13720682E-03  0.373083472    
  0.937500000      0.975000024      0.132014513       1.53406744E-03  0.132023424    
  0.937500000       1.00000000       0.00000000       0.00000000       0.00000000    
   1.06250000       0.00000000       0.00000000       0.00000000       0.00000000    
   1.06250000       2.50000004E-02  0.129806787      -1.96729554E-03  0.129821703    
   1.06250000       7.50000030E-02  0.366656244      -5.30022569E-03  0.366694540    
   1.06250000      0.125000000      0.579737663      -7.33049912E-03  0.579783976    
   1.06250000      0.175000012      0.768047810      -8.08765367E-03  0.768090367    
   1.06250000      0.224999994      0.930680692      -7.85308052E-03  0.930713832    
   1.06250000      0.275000006       1.06689692      -6.93408679E-03   1.06691945    
   1.06250000      0.324999988       1.17617488      -5.61995246E-03   1.17618835    
   1.06250000      0.375000000       1.25821495      -4.13980009E-03   1.25822175    
   1.06250000      0.425000012       1.31289423      -2.63515604E-03   1.31289685    
   1.06250000      0.475000024       1.34019613      -1.15864573E-03   1.34019661    
   1.06250000      0.524999976       1.34013450       3.02425848E-04   1.34013450    
   1.06250000      0.575000048       1.31271267       1.78557297E-03   1.31271386    
   1.06250000      0.625000000       1.25792074       3.30433808E-03   1.25792503    
   1.06250000      0.675000012       1.17578340       4.80423821E-03   1.17579317    
   1.06250000      0.725000024       1.06643176       6.14100834E-03   1.06644940    
   1.06250000      0.774999976      0.930174947       7.08436081E-03  0.930201948    
   1.06250000      0.825000048      0.767544746       7.34320004E-03  0.767579854    
   1.06250000      0.875000000      0.579291999       6.60866685E-03  0.579329669    
   1.06250000      0.925000012      0.366335094       4.60834894E-03  0.366364092    
   1.06250000      0.975000024      0.129685909       1.63091032E-03  0.129696161    
   1.06250000       1.00000000       0.00000000       0.00000000       0.00000000    
   1.18750000       0.00000000       0.00000000       0.00000000       0.00000000    
   1.18750000       2.50000004E-02  0.127822518      -2.00478779E-03  0.127838239    
   1.18750000       7.50000030E-02  0.360936105      -5.48873981E-03  0.360977858    
   1.18750000      0.125000000      0.570670366      -7.80275883E-03  0.570723712    
   1.18750000      0.175000012      0.756169915      -8.91765207E-03  0.756222486    
   1.18750000      0.224999994      0.916626930      -9.02568921E-03  0.916671395    
   1.18750000      0.275000006       1.05132294      -8.33736639E-03   1.05135596    
   1.18750000      0.324999988       1.15967083      -7.06298230E-03   1.15969229    
   1.18750000      0.375000000       1.24123502      -5.39208017E-03   1.24124670    
   1.18750000      0.425000012       1.29572439      -3.47905280E-03   1.29572904    
   1.18750000      0.475000024       1.32297146      -1.43977522E-03   1.32297218    
   1.18750000      0.524999976       1.32290268       6.39820006E-04   1.32290280    
   1.18750000      0.575000048       1.29552066       2.68424978E-03   1.29552341    
   1.18750000      0.625000000       1.24090540       4.60612960E-03   1.24091399    
   1.18750000      0.675000012       1.15923548       6.28899736E-03   1.15925252    
   1.18750000      0.725000024       1.05080950       7.57777644E-03   1.05083680    
   1.18750000      0.774999976      0.916073203       8.28167517E-03  0.916110635    
   1.18750000      0.825000048      0.755623996       8.18962976E-03  0.755668342    
   1.18750000      0.875000000      0.570190787       7.09018949E-03  0.570234895    
   1.18750000      0.925000012      0.360592902       4.80023772E-03  0.360624850    
   1.18750000      0.975000024      0.127693802       1.66882481E-03  0.127704710    
   1.18750000       1.00000000       0.00000000       0.00000000       0.00000000    
   1.31250000       0.00000000       0.00000000       0.00000000       0.00000000    
   1.31250000       2.50000004E-02  0.125960916      -2.01684819E-03  0.125977069    
   1.31250000       7.50000030E-02  0.355606019      -5.55571914E-03  0.355649412    
   1.31250000      0.125000000      0.562197328      -7.98022747E-03  0.562253952    
   1.31250000      0.175000012      0.744954824      -9.24076606E-03  0.745012164    
   1.31250000      0.224999994      0.903128862      -9.49432515E-03  0.903178751    
   1.31250000      0.275000006       1.03602743      -8.90931673E-03   1.03606570    
   1.31250000      0.324999988       1.14304960      -7.65930582E-03   1.14307523    
   1.31250000      0.375000000       1.22371042      -5.91389928E-03   1.22372472    
   1.31250000      0.425000012       1.27765179      -3.83011112E-03   1.27765751    
   1.31250000      0.475000024       1.30464125      -1.55015371E-03   1.30464220    
   1.31250000      0.524999976       1.30456758       7.94434978E-04   1.30456781    
   1.31250000      0.575000048       1.27743340       3.07709957E-03   1.27743709    
   1.31250000      0.625000000       1.22335851       5.16636390E-03   1.22336936    
   1.31250000      0.675000012       1.14258623       6.91872928E-03   1.14260721    
   1.31250000      0.725000024       1.03548360       8.17662757E-03   1.03551590    
   1.31250000      0.774999976      0.902545929       8.77024420E-03  0.902588546    
   1.31250000      0.825000048      0.744383693       8.52580927E-03  0.744432509    
   1.31250000      0.875000000      0.561698914       7.27499463E-03  0.561746061    
   1.31250000      0.925000012      0.355251223       4.87051439E-03  0.355284601    
   1.31250000      0.975000024      0.125828043       1.68171979E-03  0.125839278    
   1.31250000       1.00000000       0.00000000       0.00000000       0.00000000    
   1.43750000       0.00000000       0.00000000       0.00000000       0.00000000    
   1.43750000       2.50000004E-02  0.124137409      -2.01950874E-03  0.124153838    
   1.43750000       7.50000030E-02  0.350415170      -5.57386829E-03  0.350459486    
   1.43750000      0.125000000      0.553951859      -8.03477131E-03  0.554010093    
   1.43750000      0.175000012      0.734006941      -9.34788957E-03  0.734066486    
   1.43750000      0.224999994      0.889866233      -9.65713896E-03  0.889918625    
   1.43750000      0.275000006       1.02086043      -9.11483075E-03   1.02090108    
   1.43750000      0.324999988       1.12639356      -7.87878968E-03   1.12642109    
   1.43750000      0.375000000       1.20596850      -6.10783696E-03   1.20598400    
   1.43750000      0.425000012       1.25920534      -3.95906437E-03   1.25921154    
   1.43750000      0.475000024       1.28584862      -1.58602826E-03   1.28584957    
   1.43750000      0.524999976       1.28577232       8.61829962E-04   1.28577268    
   1.43750000      0.575000048       1.25897932       3.23633733E-03   1.25898349    
   1.43750000      0.625000000       1.20560455       5.38741238E-03   1.20561659    
   1.43750000      0.675000012       1.12591529       7.16170203E-03   1.12593806    
   1.43750000      0.725000024       1.02030134       8.40163045E-03   1.02033591    
   1.43750000      0.774999976      0.889269233       8.94763134E-03  0.889314234    
   1.43750000      0.825000048      0.733424366       8.64244811E-03  0.733475268    
   1.43750000      0.875000000      0.553445339       7.33518414E-03  0.553493917    
   1.43750000      0.925000012      0.350055575       4.89147659E-03  0.350089759    
   1.43750000      0.975000024      0.124002568       1.68512308E-03  0.124014020    
   1.43750000       1.00000000       0.00000000       0.00000000       0.00000000    
   1.56250000       0.00000000       0.00000000       0.00000000       0.00000000    
   1.56250000       2.50000004E-02  0.122319460      -2.01949663E-03  0.122336127    
   1.56250000       7.50000030E-02  0.345261633      -5.57583105E-03  0.345306665    
   1.56250000      0.125000000      0.545778930      -8.04437604E-03  0.545838177    
   1.56250000      0.175000012      0.723153532      -9.37164668E-03  0.723214269    
   1.56250000      0.224999994      0.876693845      -9.69881378E-03  0.876747489    
   1.56250000      0.275000006       1.00574851      -9.17200465E-03   1.00579035    
   1.56250000      0.324999988       1.10973227      -7.94218294E-03   1.10976064    
   1.56250000      0.375000000       1.18815100      -6.16475288E-03   1.18816698    
   1.56250000      0.425000012       1.24062157      -3.99600575E-03   1.24062800    
   1.56250000      0.475000024       1.26688337      -1.59214949E-03   1.26688433    
   1.56250000      0.524999976       1.26680601       8.89861083E-04   1.26680636    
   1.56250000      0.575000048       1.24039268       3.29375360E-03   1.24039710    
   1.56250000      0.625000000       1.18778300       5.46333846E-03   1.18779552    
   1.56250000      0.675000012       1.10924947       7.24126026E-03   1.10927308    
   1.56250000      0.725000024       1.00518560       8.47107917E-03   1.00522137    
   1.56250000      0.774999976      0.876094103       8.99842754E-03  0.876140296    
   1.56250000      0.825000048      0.722569883       8.67252611E-03  0.722621918    
   1.56250000      0.875000000      0.545272768       7.34795164E-03  0.545322299    
   1.56250000      0.925000012      0.344903052       4.89413226E-03  0.344937772    
   1.56250000      0.975000024      0.122185871       1.68505451E-03  0.122197486    
   1.56250000       1.00000000       0.00000000       0.00000000       0.00000000    
   1.68750000       0.00000000       0.00000000       0.00000000       0.00000000    
   1.68750000       2.50000004E-02  0.120497510      -2.01864052E-03  0.120514415    
   1.68750000       7.50000030E-02  0.340110123      -5.57304919E-03  0.340155780    
   1.68750000      0.125000000      0.537620604      -8.04050267E-03  0.537680745    
   1.68750000      0.175000012      0.712325811      -9.36913118E-03  0.712387443    
   1.68750000      0.224999994      0.863550663      -9.69945453E-03  0.863605082    
   1.68750000      0.275000006      0.990657806      -9.17641167E-03  0.990700305    
   1.68750000      0.324999988       1.09307492      -7.94946123E-03   1.09310377    
   1.68750000      0.375000000       1.17031455      -6.17201487E-03   1.17033088    
   1.68750000      0.425000012       1.22199810      -3.99954431E-03   1.22200465    
   1.68750000      0.475000024       1.24786592      -1.58895669E-03   1.24786687    
   1.68750000      0.524999976       1.24778867       9.00588871E-04   1.24778903    
   1.68750000      0.575000048       1.22176981       3.31024453E-03   1.22177434    
   1.68750000      0.625000000       1.16994798       5.48206083E-03   1.16996086    
   1.68750000      0.675000012       1.09259427       7.25849299E-03   1.09261835    
   1.68750000      0.725000024      0.990098417       8.48370604E-03  0.990134776    
   1.68750000      0.774999976      0.862955332       9.00477730E-03  0.863002300    
   1.68750000      0.825000048      0.711747587       8.67320318E-03  0.711800456    
   1.68750000      0.875000000      0.537119985       7.34541146E-03  0.537170172    
   1.68750000      0.925000012      0.339756459       4.89134388E-03  0.339791656    
   1.68750000      0.975000024      0.120366514       1.68393739E-03  0.120378293    
   1.68750000       1.00000000       0.00000000       0.00000000       0.00000000    
   1.81250000       0.00000000       0.00000000       0.00000000       0.00000000    
   1.81250000       2.50000004E-02  0.118671045      -2.01766496E-03  0.118688196    
   1.81250000       7.50000030E-02  0.334951878      -5.56938443E-03  0.334998161    
   1.81250000      0.125000000      0.529458523      -8.03350937E-03  0.529519498    
   1.81250000      0.175000012      0.701499581      -9.35958792E-03  0.701561987    
   1.81250000      0.224999994      0.850412965      -9.68924910E-03  0.850468159    
   1.81250000      0.275000006      0.975574374      -9.16712172E-03  0.975617409    
   1.81250000      0.324999988       1.07642221      -7.94152264E-03   1.07645154    
   1.81250000      0.375000000       1.15247822      -6.16545277E-03   1.15249467    
   1.81250000      0.425000012       1.20336938      -3.99409141E-03   1.20337605    
   1.81250000      0.475000024       1.22884059      -1.58443640E-03   1.22884166    
   1.81250000      0.524999976       1.22876453       9.03991167E-04   1.22876489    
   1.81250000      0.575000048       1.20314407       3.31223430E-03   1.20314860    
   1.81250000      0.625000000       1.15211606       5.48215024E-03   1.15212905    
   1.81250000      0.675000012       1.07594776       7.25581311E-03   1.07597220    
   1.81250000      0.725000024      0.975022316       8.47817585E-03  0.975059152    
   1.81250000      0.774999976      0.849826336       8.99756514E-03  0.849873960    