 TITLE= "TESTPLOT" 
 VARIABLES="x","y","fx","fy","magf" 
 ZONE T="1", I=          81 , J=          21
   0.00000000       0.00000000       1.00000000       0.00000000       1.00000000    
   0.00000000       2.50000004E-02   1.00000000       0.00000000       1.00000000    
   0.00000000       7.50000030E-02   1.00000000       0.00000000       1.00000000    
   0.00000000      0.125000000       1.00000000       0.00000000       1.00000000    
   0.00000000      0.175000012       1.00000000       0.00000000       1.00000000    
   0.00000000      0.224999994       1.00000000       0.00000000       1.00000000    
   0.00000000      0.275000006       1.00000000       0.00000000       1.00000000    
   0.00000000      0.324999988       1.00000000       0.00000000       1.00000000    
   0.00000000      0.375000000       1.00000000       0.00000000       1.00000000    
   0.00000000      0.425000012       1.00000000       0.00000000       1.00000000    
   0.00000000      0.475000024       1.00000000       0.00000000       1.00000000    
   0.00000000      0.524999976       1.00000000       0.00000000       1.00000000    
   0.00000000      0.575000048       1.00000000       0.00000000       1.00000000    
   0.00000000      0.625000000       1.00000000       0.00000000       1.00000000    
   0.00000000      0.675000012       1.00000000       0.00000000       1.00000000    
   0.00000000      0.725000024       1.00000000       0.00000000       1.00000000    
   0.00000000      0.774999976       1.00000000       0.00000000       1.00000000    
   0.00000000      0.825000048       1.00000000       0.00000000       1.00000000    
   0.00000000      0.875000000       1.00000000       0.00000000       1.00000000    
   0.00000000      0.925000012       1.00000000       0.00000000       1.00000000    
   0.00000000      0.975000024       1.00000000       0.00000000       1.00000000    
   0.00000000       1.00000000       1.00000000       0.00000000       1.00000000    
   6.25000000E-02   0.00000000      0.500000000       0.00000000      0.500000000    
   6.25000000E-02   2.50000004E-02  0.715957642      0.110869698      0.724491179    
   6.25000000E-02   7.50000030E-02  0.921125770      0.250334322      0.954536498    
   6.25000000E-02  0.125000000       1.01269960      0.270898998       1.04830658    
   6.25000000E-02  0.175000012       1.04711032      0.241076186       1.07450354    
   6.25000000E-02  0.224999994       1.05401266      0.194730729       1.07185018    
   6.25000000E-02  0.275000006       1.04923296      0.147536978       1.05955505    
   6.25000000E-02  0.324999988       1.04099703      0.105549388       1.04633427    
   6.25000000E-02  0.375000000       1.03326905       6.99470788E-02   1.03563392    
   6.25000000E-02  0.425000012       1.02771187       3.96588519E-02   1.02847683    
   6.25000000E-02  0.475000024       1.02487564       1.27281006E-02   1.02495468    
   6.25000000E-02  0.524999976       1.02488112      -1.30704148E-02   1.02496445    
   6.25000000E-02  0.575000048       1.02772832      -4.00100127E-02   1.02850688    
   6.25000000E-02  0.625000000       1.03329849      -7.03162551E-02   1.03568816    
   6.25000000E-02  0.675000012       1.04104114     -0.105947107       1.04641843    
   6.25000000E-02  0.725000024       1.04929340     -0.147975251       1.05967605    
   6.25000000E-02  0.774999976       1.05409026     -0.195222557       1.07201588    
   6.25000000E-02  0.825000048       1.04720366     -0.241633713       1.07471967    
   6.25000000E-02  0.875000000       1.01280248     -0.271529615       1.04856908    
   6.25000000E-02  0.925000012      0.921225309     -0.251026034      0.954814196    
   6.25000000E-02  0.975000024      0.716030478     -0.111227378      0.724617958    
   6.25000000E-02   1.00000000      0.500000000       0.00000000      0.500000000    
  0.187500000       0.00000000       0.00000000       0.00000000       0.00000000    
  0.187500000       2.50000004E-02  0.340548754       3.37779820E-02  0.342219830    
  0.187500000       7.50000030E-02  0.740141749      0.105417877      0.747611344    
  0.187500000      0.125000000      0.961996436      0.165662527      0.976156354    
  0.187500000      0.175000012       1.07300353      0.193555206       1.09032118    
  0.187500000      0.224999994       1.11814785      0.192039713       1.13451922    
  0.187500000      0.275000006       1.12749135      0.170427918       1.14029932    
  0.187500000      0.324999988       1.12038255      0.137509853       1.12878966    
  0.187500000      0.375000000       1.10845947       9.94334072E-02   1.11291027    
  0.187500000      0.425000012       1.09808576       5.96474670E-02   1.09970450    
  0.187500000      0.475000024       1.09232330       1.96012016E-02   1.09249914    
  0.187500000      0.524999976       1.09233928      -2.04110444E-02   1.09253001    
  0.187500000      0.575000048       1.09813333      -6.04650453E-02   1.09979677    
  0.187500000      0.625000000       1.10854065     -0.100265354       1.11306584    
  0.187500000      0.675000012       1.12049699     -0.138360679       1.12900722    
  0.187500000      0.725000024       1.12763762     -0.171298400       1.14057434    
  0.187500000      0.774999976       1.11832011     -0.192925483       1.13483930    
  0.187500000      0.825000048       1.07319117     -0.194445461       1.09066415    
  0.187500000      0.875000000      0.962182999     -0.166540265      0.976489544    
  0.187500000      0.925000012      0.740305543     -0.106253825      0.747891843    
  0.187500000      0.975000024      0.340660661      -3.41806710E-02  0.342371136    
  0.187500000       1.00000000       0.00000000       0.00000000       0.00000000    
  0.312500000       0.00000000       0.00000000       0.00000000       0.00000000    
  0.312500000       2.50000004E-02  0.221605718       8.26701056E-03  0.221759871    
  0.312500000       7.50000030E-02  0.587784111       3.36565226E-02  0.588746905    
  0.312500000      0.125000000      0.851272881       6.67339936E-02  0.853884637    
  0.312500000      0.175000012       1.02014971       9.23718587E-02   1.02432323    
  0.312500000      0.224999994       1.11520970      0.104307443       1.12007701    
  0.312500000      0.275000006       1.15959740      0.102356493       1.16410613    
  0.312500000      0.324999988       1.17371488       8.92040431E-02   1.17709982    
  0.312500000      0.375000000       1.17302489       6.82263002E-02   1.17500734    
  0.312500000      0.425000012       1.16778612       4.24106233E-02   1.16855597    
  0.312500000      0.475000024       1.16388226       1.40576372E-02   1.16396713    
  0.312500000      0.524999976       1.16390371      -1.50747010E-02   1.16400135    
  0.312500000      0.575000048       1.16784894      -4.34273779E-02   1.16865611    
  0.312500000      0.625000000       1.17312646      -6.92417696E-02   1.17516816    
  0.312500000      0.675000012       1.17384839      -9.02149007E-02   1.17730999    
  0.312500000      0.725000024       1.15975142     -0.103356071       1.16434777    
  0.312500000      0.774999976       1.11536789     -0.105285697       1.12032604    
  0.312500000      0.825000048       1.02029264      -9.33164954E-02   1.02455115    
  0.312500000      0.875000000      0.851384401      -6.76324517E-02  0.854066491    
  0.312500000      0.925000012      0.587859750      -3.44917886E-02  0.588870764    
  0.312500000      0.975000024      0.221655548      -8.66608787E-03  0.221824899    
  0.312500000       1.00000000       0.00000000       0.00000000       0.00000000    
  0.437500000       0.00000000       0.00000000       0.00000000       0.00000000    
  0.437500000       2.50000004E-02  0.184470445       1.06566527E-03  0.184473529    
  0.437500000       7.50000030E-02  0.516142726       7.71860266E-03  0.516200423    
  0.437500000      0.125000000      0.778958976       2.03366131E-02  0.779224396    
  0.437500000      0.175000012      0.966591835       3.31707112E-02  0.967160821    
  0.437500000      0.224999994       1.08709037       4.20330018E-02   1.08790267    
  0.437500000      0.275000006       1.15558100       4.49663661E-02   1.15645552    
  0.437500000      0.324999988       1.18882585       4.18097042E-02   1.18956077    
  0.437500000      0.375000000       1.20150065       3.34815755E-02   1.20196712    
  0.437500000      0.425000012       1.20442295       2.13807877E-02   1.20461273    
  0.437500000      0.475000024       1.20432508       7.03020953E-03   1.20434558    
  0.437500000      0.524999976       1.20434427      -8.06236081E-03   1.20437121    
  0.437500000      0.575000048       1.20447826      -2.24086307E-02   1.20468664    
  0.437500000      0.625000000       1.20158601      -3.45002674E-02   1.20208120    
  0.437500000      0.675000012       1.18892956      -4.28133421E-02   1.18970013    
  0.437500000      0.725000024       1.15568662      -4.59480137E-02   1.15659964    
  0.437500000      0.774999976       1.08717752      -4.29847762E-02   1.08802700    
  0.437500000      0.825000048      0.966642737      -3.40851657E-02  0.967243493    
  0.437500000      0.875000000      0.778967559      -2.12084875E-02  0.779256225    
  0.437500000      0.925000012      0.516127527      -8.53710063E-03  0.516198158    
  0.437500000      0.975000024      0.184475064      -1.45936524E-03  0.184480831    
  0.437500000       1.00000000       0.00000000       0.00000000       0.00000000    
  0.562500000       0.00000000       0.00000000       0.00000000       0.00000000    
  0.562500000       2.50000004E-02  0.170771748      -1.09381985E-03  0.170775250    
  0.562500000       7.50000030E-02  0.484827638      -1.18037476E-03  0.484829068    
  0.562500000      0.125000000      0.740769267       2.14758608E-03  0.740772367    
  0.562500000      0.175000012      0.930888891       7.02466862E-03  0.930915415    
  0.562500000      0.224999994       1.05985546       1.14956684E-02   1.05991781    
  0.562500000      0.275000006       1.13918495       1.41740832E-02   1.13927317    
  0.562500000      0.324999988       1.18292475       1.44095030E-02   1.18301249    
  0.562500000      0.375000000       1.20415497       1.21965362E-02   1.20421672    
  0.562500000      0.425000012       1.21295738       7.98215531E-03   1.21298361    
  0.562500000      0.475000024       1.21581948       2.48129666E-03   1.21582198    
  0.562500000      0.524999976       1.21583295      -3.45946336E-03   1.21583784    
  0.562500000      0.575000048       1.21299529      -8.95532034E-03   1.21302831    
  0.562500000      0.625000000       1.20421076      -1.31597938E-02   1.20428264    
  0.562500000      0.675000012       1.18298531      -1.53578948E-02   1.18308496    
  0.562500000      0.725000024       1.13923299      -1.51025839E-02   1.13933313    
  0.562500000      0.774999976       1.05987191      -1.23995524E-02   1.05994439    
  0.562500000      0.825000048      0.930860639      -7.90026411E-03  0.930894136    
  0.562500000      0.875000000      0.740700305      -2.99235666E-03  0.740706325    
  0.562500000      0.925000012      0.484751582       3.76544223E-04  0.484751731    
  0.562500000      0.975000024      0.170750409       7.04443781E-04  0.170751855    
  0.562500000       1.00000000       0.00000000       0.00000000       0.00000000    
  0.687500000       0.00000000       0.00000000       0.00000000       0.00000000    
  0.687500000       2.50000004E-02  0.164157540      -1.75050646E-03  0.164166868    
  0.687500000       7.50000030E-02  0.469026566      -4.10055090E-03  0.469044477    
  0.687500000      0.125000000      0.719210565      -4.30287607E-03  0.719223440    
  0.687500000      0.175000012      0.907391608      -2.96548568E-03  0.907396495    
  0.687500000      0.224999994       1.03775251      -1.00005581E-03   1.03775299    
  0.687500000      0.275000006       1.12060356       7.92911334E-04   1.12060380    
  0.687500000      0.324999988       1.16866755       1.89119880E-03   1.16866910    
  0.687500000      0.375000000       1.19394517       2.08958262E-03   1.19394696    
  0.687500000      0.425000012       1.20578706       1.45458081E-03   1.20578790    
  0.687500000      0.475000024       1.21025920       2.46127165E-04   1.21025920    
  0.687500000      0.524999976       1.21026731      -1.16435054E-03   1.21026790    
  0.687500000      0.575000048       1.20580924      -2.36926833E-03   1.20581162    
  0.687500000      0.625000000       1.19397449      -2.99669290E-03   1.19397831    
  0.687500000      0.675000012       1.16869187      -2.78705196E-03   1.16869521    
  0.687500000      0.725000024       1.12060642      -1.67457317E-03   1.12060773    
  0.687500000      0.774999976       1.03771734       1.35403418E-04   1.03771734    
  0.687500000      0.825000048      0.907309890       2.11995142E-03  0.907312334    
  0.687500000      0.875000000      0.719093144       3.47793708E-03  0.719101548    
  0.687500000      0.925000012      0.468915224       3.30750179E-03  0.468926877    
  0.687500000      0.975000024      0.164122865       1.36457337E-03  0.164128542    
  0.687500000       1.00000000       0.00000000       0.00000000       0.00000000    
  0.812500000       0.00000000       0.00000000       0.00000000       0.00000000    
  0.812500000       2.50000004E-02  0.159723461      -1.94460992E-03  0.159735292    
  0.812500000       7.50000030E-02  0.458602309      -5.01019321E-03  0.458629668    
  0.812500000      0.125000000      0.704245090      -6.42530527E-03  0.704274416    
  0.812500000      0.175000012      0.889632225      -6.43581245E-03  0.889655530    
  0.812500000      0.224999994       1.01902699      -5.56586171E-03   1.01904225    
  0.812500000      0.275000006       1.10233951      -4.31966037E-03   1.10234797    
  0.812500000      0.324999988       1.15167880      -3.07280757E-03   1.15168285    
  0.812500000      0.375000000       1.17845035      -2.03361455E-03   1.17845213    
  0.812500000      0.425000012       1.19153929      -1.25742494E-03   1.19153988    
  0.812500000      0.475000024       1.19670713      -6.84905564E-04   1.19670737    
  0.812500000      0.524999976       1.19671130      -1.87158847E-04   1.19671130    
  0.812500000      0.575000048       1.19154978       3.87771346E-04   1.19154978    
  0.812500000      0.625000000       1.17846072       1.16890098E-03   1.17846131    
  0.812500000      0.675000012       1.15167761       2.21546181E-03   1.15167975    
  0.812500000      0.725000024       1.10231209       3.47147509E-03   1.10231757    
  0.812500000      0.774999976       1.01895893       4.72849002E-03   1.01896989    
  0.812500000      0.825000048      0.889517903       5.61101874E-03  0.889535606    
  0.812500000      0.875000000      0.704099536       5.61488140E-03  0.704121947    
  0.812500000      0.925000012      0.458471358       4.22587013E-03  0.458490819    
  0.812500000      0.975000024      0.159681976       1.56167848E-03  0.159689620    
  0.812500000       1.00000000       0.00000000       0.00000000       0.00000000    
  0.937500000       0.00000000       0.00000000       0.00000000       0.00000000    
  0.937500000       2.50000004E-02  0.155978128      -2.00157473E-03  0.155990973    
  0.937500000       7.50000030E-02  0.449943632      -5.28260786E-03  0.449974656    
  0.937500000      0.125000000      0.691642404      -7.08380388E-03  0.691678703    
  0.937500000      0.175000012      0.874171972      -7.55909365E-03  0.874204695    
  0.937500000      0.224999994       1.00191319      -7.10569508E-03   1.00193846    
  0.937500000      0.275000006       1.08458209      -6.10733312E-03   1.08459926    
  0.937500000      0.324999988       1.13394356      -4.86050174E-03   1.13395393    
  0.937500000      0.375000000       1.16105676      -3.55135137E-03   1.16106212    
  0.937500000      0.425000012       1.17452836      -2.26878794E-03   1.17453051    
  0.937500000      0.475000024       1.17993248      -1.03016850E-03   1.17993295    
  0.937500000      0.524999976       1.17993414       1.89754559E-04   1.17993414    
  0.937500000      0.575000048       1.17453122       1.43004919E-03   1.17453206    
  0.937500000      0.625000000       1.16105485       2.71580392E-03   1.16105807    
  0.937500000      0.675000012       1.13392639       4.02950402E-03   1.13393354    
  0.937500000      0.725000024       1.08453608       5.28208166E-03   1.08454895    
  0.937500000      0.774999976       1.00182545       6.28725719E-03   1.00184524    
  0.937500000      0.825000048      0.874039173       6.74889097E-03  0.874065220    
  0.937500000      0.875000000      0.691481292       6.28370652E-03  0.691509843    
  0.937500000      0.925000012      0.449802548       4.50505037E-03  0.449825108    
  0.937500000      0.975000024      0.155933648       1.62125542E-03  0.155942082    
  0.937500000       1.00000000       0.00000000       0.00000000       0.00000000    
   1.06250000       0.00000000       0.00000000       0.00000000       0.00000000    
   1.06250000       2.50000004E-02  0.152492076      -2.02100282E-03  0.152505472    
   1.06250000       7.50000030E-02  0.441868603      -5.36694378E-03  0.441901177    
   1.06250000      0.125000000      0.679854214      -7.28222914E-03  0.679893196    
   1.06250000      0.175000012      0.859573960      -7.90429115E-03  0.859610319    
   1.06250000      0.224999994      0.985484123      -7.59427063E-03  0.985513389    
   1.06250000      0.275000006       1.06714702      -6.69208448E-03   1.06716800    
   1.06250000      0.324999988       1.11607075      -5.45976125E-03   1.11608410    
   1.06250000      0.375000000       1.14307022      -4.06885240E-03   1.14307749    
   1.06250000      0.425000012       1.15656698      -2.61617359E-03   1.15656996    
   1.06250000      0.475000024       1.16201234      -1.14601967E-03   1.16201293    
   1.06250000      0.524999976       1.16201258       3.27325106E-04   1.16201270    
   1.06250000      0.575000048       1.15656590       1.79864676E-03   1.15656734    
   1.06250000      0.625000000       1.14306188       3.25329322E-03   1.14306653    
   1.06250000      0.675000012       1.11604440       4.64700814E-03   1.11605406    
   1.06250000      0.725000024       1.06709075       5.88298216E-03   1.06710696    
   1.06250000      0.774999976      0.985386133       6.78950874E-03  0.985409498    
   1.06250000      0.825000048      0.859431505       7.10497797E-03  0.859460890    
   1.06250000      0.875000000      0.679685414       6.49034139E-03  0.679716408    
   1.06250000      0.925000012      0.441723168       4.59544733E-03  0.441747069    
   1.06250000      0.975000024      0.152447328       1.64327456E-03  0.152456194    
   1.06250000       1.00000000       0.00000000       0.00000000       0.00000000    
   1.18750000       0.00000000       0.00000000       0.00000000       0.00000000    
   1.18750000       2.50000004E-02  0.149158850      -2.03228928E-03  0.149172693    
   1.18750000       7.50000030E-02  0.434021562      -5.40248584E-03  0.434055179    
   1.18750000      0.125000000      0.668364346      -7.34875351E-03  0.668404758    
   1.18750000      0.175000012      0.845310092      -8.01138487E-03  0.845348060    
   1.18750000      0.224999994      0.969352722      -7.74493348E-03  0.969383657    
   1.18750000      0.275000006       1.04989982      -6.87527470E-03   1.04992235    
   1.18750000      0.324999988       1.09822941      -5.65061858E-03   1.09824395    
   1.18750000      0.375000000       1.12495160      -4.23538405E-03   1.12495959    
   1.18750000      0.425000012       1.13833928      -2.72749388E-03   1.13834250    
   1.18750000      0.475000024       1.14375138      -1.18019676E-03   1.14375198    
   1.18750000      0.524999976       1.14375091       3.77668533E-04   1.14375091    
   1.18750000      0.575000048       1.13833559       1.92535832E-03   1.13833725    
   1.18750000      0.625000000       1.12493920       3.43427295E-03   1.12494445    
   1.18750000      0.675000012       1.09819770       4.85100178E-03   1.09820843    
   1.18750000      0.725000024       1.04983759       6.07786793E-03   1.04985523    
   1.18750000      0.774999976      0.969249129       6.95042033E-03  0.969274044    
   1.18750000      0.825000048      0.845163107       7.22045591E-03  0.845193982    
   1.18750000      0.875000000      0.668192387       6.56365603E-03  0.668224633    
   1.18750000      0.925000012      0.433875054       4.63656615E-03  0.433899820    
   1.18750000      0.975000024      0.149114832       1.65703206E-03  0.149124041    
   1.18750000       1.00000000       0.00000000       0.00000000       0.00000000    
   1.31250000       0.00000000       0.00000000       0.00000000       0.00000000    
   1.31250000       2.50000004E-02  0.145962045      -2.04270845E-03  0.145976335    
   1.31250000       7.50000030E-02  0.426308990      -5.42852003E-03  0.426343560    
   1.31250000      0.125000000      0.657015681      -7.38286693E-03  0.657057166    
   1.31250000      0.175000012      0.831204057      -8.05309787E-03  0.831243098    
   1.31250000      0.224999994      0.953376651      -7.79659860E-03  0.953408539    
   1.31250000      0.275000006       1.03277779      -6.93501718E-03   1.03280103    
   1.31250000      0.324999988       1.08046389      -5.71172312E-03   1.08047903    
   1.31250000      0.375000000       1.10685372      -4.28811880E-03   1.10686207    
   1.31250000      0.425000012       1.12008524      -2.76181614E-03   1.12008870    
   1.31250000      0.475000024       1.12543797      -1.18890346E-03   1.12543857    
   1.31250000      0.524999976       1.12543690       3.97274620E-04   1.12543702    
   1.31250000      0.575000048       1.12007999       1.97066716E-03   1.12008178    
   1.31250000      0.625000000       1.10683870       3.49788228E-03   1.10684431    
   1.31250000      0.675000012       1.08042955       4.92268987E-03   1.08044076    
   1.31250000      0.725000024       1.03271270       6.14739861E-03   1.03273106    
   1.31250000      0.774999976      0.953270197       7.01097306E-03  0.953296006    
   1.31250000      0.825000048      0.831055522       7.27037806E-03  0.831087291    
   1.31250000      0.875000000      0.656843662       6.60490338E-03  0.656876862    
   1.31250000      0.925000012      0.426163614       4.66838945E-03  0.426189184    
   1.31250000      0.975000024      0.145919174       1.67003542E-03  0.145928726    
   1.31250000       1.00000000       0.00000000       0.00000000       0.00000000    
   1.43750000       0.00000000       0.00000000       0.00000000       0.00000000    
   1.43750000       2.50000004E-02  0.142907500      -2.05369690E-03  0.142922252    
   1.43750000       7.50000030E-02  0.418715596      -5.45452582E-03  0.418751150    
   1.43750000      0.125000000      0.645769060      -7.41208345E-03  0.645811558    
   1.43750000      0.175000012      0.817204237      -8.08077119E-03  0.817244232    
   1.43750000      0.224999994      0.937509835      -7.82353617E-03  0.937542498    
   1.43750000      0.275000006       1.01575899      -6.96161715E-03   1.01578283    
   1.43750000      0.324999988       1.06278706      -5.73643483E-03   1.06280255    
   1.43750000      0.375000000       1.08882689      -4.30789636E-03   1.08883548    
   1.43750000      0.425000012       1.10188746      -2.77341763E-03   1.10189104    
   1.43750000      0.475000024       1.10717201      -1.18984724E-03   1.10717261    
   1.43750000      0.524999976       1.10717058       4.07933665E-04   1.10717070    
   1.43750000      0.575000048       1.10188174       1.99186150E-03   1.10188353    
   1.43750000      0.625000000       1.08881116       3.52699915E-03   1.08881688    
   1.43750000      0.675000012       1.06275225       4.95644752E-03   1.06276381    
   1.43750000      0.725000024       1.01569366       6.18276233E-03   1.01571250    
   1.43750000      0.774999976      0.937403321       7.04604248E-03  0.937429786    
   1.43750000      0.825000048      0.817056417       7.30537903E-03  0.817089081    
   1.43750000      0.875000000      0.645598888       6.64072996E-03  0.645633042    
   1.43750000      0.925000012      0.418572664       4.70042182E-03  0.418599069    
   1.43750000      0.975000024      0.142866343       1.68390397E-03  0.142876267    
   1.43750000       1.00000000       0.00000000       0.00000000       0.00000000    
   1.56250000       0.00000000       0.00000000       0.00000000       0.00000000    
   1.56250000       2.50000004E-02  0.140005291      -2.06517475E-03  0.140020519    
   1.56250000       7.50000030E-02  0.411247015      -5.48199285E-03  0.411283553    
   1.56250000      0.125000000      0.634620905      -7.44274724E-03  0.634664536    
   1.56250000      0.175000012      0.803300917      -8.10800306E-03  0.803341806    
   1.56250000      0.224999994      0.921742380      -7.84675870E-03  0.921775758    
   1.56250000      0.275000006      0.998838782      -6.98121684E-03  0.998863220    
   1.56250000      0.324999988       1.04520512      -5.75208617E-03   1.04522097    
   1.56250000      0.375000000       1.07088947      -4.31862008E-03   1.07089818    
   1.56250000      0.425000012       1.08377433      -2.77830847E-03   1.08377790    
   1.56250000      0.475000024       1.08898759      -1.18825934E-03   1.08898830    
   1.56250000      0.524999976       1.08898628       4.16170631E-04   1.08898640    
   1.56250000      0.575000048       1.08376813       2.00632773E-03   1.08377004    
   1.56250000      0.625000000       1.07087326       3.54678929E-03   1.07087910    
   1.56250000      0.675000012       1.04516983       4.98038251E-03   1.04518163    
   1.56250000      0.725000024      0.998773456       6.20990852E-03  0.998792768    
   1.56250000      0.774999976      0.921636701       7.07619684E-03  0.921663880    
   1.56250000      0.825000048      0.803154588       7.33901095E-03  0.803188145    
   1.56250000      0.875000000      0.634453118       6.67745899E-03  0.634488225    
   1.56250000      0.925000012      0.411106586       4.73374454E-03  0.411133856    
   1.56250000      0.975000024      0.139965743       1.69827475E-03  0.139976040    
   1.56250000       1.00000000       0.00000000       0.00000000       0.00000000    
   1.68750000       0.00000000       0.00000000       0.00000000       0.00000000    
   1.68750000       2.50000004E-02  0.137262404      -2.07671430E-03  0.137278110    
   1.68750000       7.50000030E-02  0.403911173      -5.50986081E-03  0.403948754    
   1.68750000      0.125000000      0.623575926      -7.47435074E-03  0.623620749    
   1.68750000      0.175000012      0.789496064      -8.13626684E-03  0.789537966    
   1.68750000      0.224999994      0.906074822      -7.87058100E-03  0.906109035    
   1.68750000      0.275000006      0.982018709      -7.00064469E-03  0.982043684    
   1.68750000      0.324999988       1.02772152      -5.76702598E-03   1.02773774    
   1.68750000      0.375000000       1.05304825      -4.32872307E-03   1.05305719    
   1.68750000      0.425000012       1.06575537      -2.78281420E-03   1.06575894    
   1.68750000      0.475000024       1.07089674      -1.18694222E-03   1.07089746    
   1.68750000      0.524999976       1.07089520       4.23201767E-04   1.07089531    
   1.68750000      0.575000048       1.06574869       2.01900396E-03   1.06575060    
   1.68750000      0.625000000       1.05303168       3.56475078E-03   1.05303776    
   1.68750000      0.675000012       1.02768612       5.00303879E-03   1.02769828    
   1.68750000      0.725000024      0.981953382       6.23680744E-03  0.981973171    
   1.68750000      0.774999976      0.905970097       7.10724480E-03  0.905997992    
   1.68750000      0.825000048      0.789351404       7.37429690E-03  0.789385855    
   1.68750000      0.875000000      0.623410583       6.71580993E-03  0.623446763    
   1.68750000      0.925000012      0.403772891       4.76795342E-03  0.403801054    
   1.68750000      0.975000024      0.137223840       1.71286543E-03  0.137234524    
   1.68750000       1.00000000       0.00000000       0.00000000       0.00000000    
   1.81250000       0.00000000       0.00000000       0.00000000       0.00000000    
   1.81250000       2.50000004E-02  0.134683669      -2.08813744E-03  0.134699851    
   1.81250000       7.50000030E-02  0.396715045      -5.53791923E-03  0.396753699    
   1.81250000      0.125000000      0.612640500      -7.50676915E-03  0.612686515    
   1.81250000      0.175000012      0.775794268      -8.16550106E-03  0.775837243    
   1.81250000      0.224999994      0.890510917      -7.89530016E-03  0.890545905    
   1.81250000      0.275000006      0.965302289      -7.02096429E-03  0.965327859    
   1.81250000      0.324999988       1.01034057      -5.78265591E-03   1.01035714    
   1.81250000      0.375000000       1.03530860      -4.33918089E-03   1.03531766    
   1.81250000      0.425000012       1.04783726      -2.78792763E-03   1.04784095    
   1.81250000      0.475000024       1.05290651      -1.18645071E-03   1.05290723    
   1.81250000      0.524999976       1.05290473       4.29644308E-04   1.05290484    
   1.81250000      0.575000048       1.04783058       2.03132653E-03   1.04783261    
   1.81250000      0.625000000       1.03529203       3.58275534E-03   1.03529823    
   1.81250000      0.675000012       1.01030564       5.02637867E-03   1.01031816    
   1.81250000      0.725000024      0.965237856       6.26473036E-03  0.965258181    
   1.81250000      0.774999976      0.890407681       7.13931862E-03  0.890436292    