 TITLE= "TESTPLOT" 
 VARIABLES="x","y","fx","fy","magf" 
 ZONE T="1", I=          81 , J=          21
   0.00000000       0.00000000       1.00000000       0.00000000       1.00000000    
   0.00000000       2.50000004E-02   1.00000000       0.00000000       1.00000000    
   0.00000000       7.50000030E-02   1.00000000       0.00000000       1.00000000    
   0.00000000      0.125000000       1.00000000       0.00000000       1.00000000    
   0.00000000      0.175000012       1.00000000       0.00000000       1.00000000    
   0.00000000      0.224999994       1.00000000       0.00000000       1.00000000    
   0.00000000      0.275000006       1.00000000       0.00000000       1.00000000    
   0.00000000      0.324999988       1.00000000       0.00000000       1.00000000    
   0.00000000      0.375000000       1.00000000       0.00000000       1.00000000    
   0.00000000      0.425000012       1.00000000       0.00000000       1.00000000    
   0.00000000      0.475000024       1.00000000       0.00000000       1.00000000    
   0.00000000      0.524999976       1.00000000       0.00000000       1.00000000    
   0.00000000      0.575000048       1.00000000       0.00000000       1.00000000    
   0.00000000      0.625000000       1.00000000       0.00000000       1.00000000    
   0.00000000      0.675000012       1.00000000       0.00000000       1.00000000    
   0.00000000      0.725000024       1.00000000       0.00000000       1.00000000    
   0.00000000      0.774999976       1.00000000       0.00000000       1.00000000    
   0.00000000      0.825000048       1.00000000       0.00000000       1.00000000    
   0.00000000      0.875000000       1.00000000       0.00000000       1.00000000    
   0.00000000      0.925000012       1.00000000       0.00000000       1.00000000    
   0.00000000      0.975000024       1.00000000       0.00000000       1.00000000    
   0.00000000       1.00000000       1.00000000       0.00000000       1.00000000    
   6.25000000E-02   0.00000000      0.500000000       0.00000000      0.500000000    
   6.25000000E-02   2.50000004E-02  0.716381609      0.111083895      0.724942923    
   6.25000000E-02   7.50000030E-02  0.919972360      0.251637280      0.953766465    
   6.25000000E-02  0.125000000       1.01073050      0.274276912       1.04728413    
   6.25000000E-02  0.175000012       1.04560196      0.246670276       1.07430422    
   6.25000000E-02  0.224999994       1.05379009      0.201842368       1.07294631    
   6.25000000E-02  0.275000006       1.05049467      0.155058861       1.06187677    
   6.25000000E-02  0.324999988       1.04348922      0.112396352       1.04952502    
   6.25000000E-02  0.375000000       1.03656101       7.53071606E-02   1.03929293    
   6.25000000E-02  0.425000012       1.03141427       4.30479646E-02   1.03231215    
   6.25000000E-02  0.475000024       1.02873266       1.39203975E-02   1.02882683    
   6.25000000E-02  0.524999976       1.02873898      -1.41373919E-02   1.02883613    
   6.25000000E-02  0.575000048       1.03143239      -4.32753935E-02   1.03233981    
   6.25000000E-02  0.625000000       1.03659165      -7.55544081E-02   1.03934145    
   6.25000000E-02  0.675000012       1.04353476     -0.112674564       1.04960012    
   6.25000000E-02  0.725000024       1.05055666     -0.155380845       1.06198514    
   6.25000000E-02  0.774999976       1.05386817     -0.202220261       1.07309425    
   6.25000000E-02  0.825000048       1.04569507     -0.247115016       1.07449710    
   6.25000000E-02  0.875000000       1.01083279     -0.274796337       1.04751897    
   6.25000000E-02  0.925000012      0.920070052     -0.252221406      0.954014957    
   6.25000000E-02  0.975000024      0.716450036     -0.111389011      0.725057364    
   6.25000000E-02   1.00000000      0.500000000       0.00000000      0.500000000    
  0.187500000       0.00000000       0.00000000       0.00000000       0.00000000    
  0.187500000       2.50000004E-02  0.338619471       3.52735072E-02  0.340451717    
  0.187500000       7.50000030E-02  0.729766250      0.112050809      0.738318443    
  0.187500000      0.125000000      0.947877944      0.180423498      0.964896500    
  0.187500000      0.175000012       1.06122243      0.216722190       1.08312583    
  0.187500000      0.224999994       1.11299801      0.221422642       1.13480949    
  0.187500000      0.275000006       1.13064265      0.202269703       1.14859295    
  0.187500000      0.324999988       1.13128471      0.167561769       1.14362669    
  0.187500000      0.375000000       1.12529659      0.123845764       1.13209116    
  0.187500000      0.425000012       1.11869287       7.55062327E-02   1.12123811    
  0.187500000      0.475000024       1.11470342       2.51410175E-02   1.11498690    
  0.187500000      0.524999976       1.11472225      -2.57762354E-02   1.11502028    
  0.187500000      0.575000048       1.11874712      -7.61510283E-02   1.12133586    
  0.187500000      0.625000000       1.12538576     -0.124508619       1.13225245    
  0.187500000      0.675000012       1.13140869     -0.168248907       1.14385021    
  0.187500000      0.725000024       1.13079870     -0.202982634       1.14887238    
  0.187500000      0.774999976       1.11317873     -0.222157896       1.13513041    
  0.187500000      0.825000048       1.06141937     -0.217470378       1.08346868    
  0.187500000      0.875000000      0.948074460     -0.181168780      0.965229154    
  0.187500000      0.925000012      0.729936302     -0.112766750      0.738595545    
  0.187500000      0.975000024      0.338727146      -3.56198400E-02  0.340594858    
  0.187500000       1.00000000       0.00000000       0.00000000       0.00000000    
  0.312500000       0.00000000       0.00000000       0.00000000       0.00000000    
  0.312500000       2.50000004E-02  0.212851286       1.02656009E-02  0.213098690    
  0.312500000       7.50000030E-02  0.558439136       4.24229763E-02  0.560048163    
  0.312500000      0.125000000      0.813189149       8.61925855E-02  0.817744315    
  0.312500000      0.175000012      0.987256408      0.123101346      0.994901597    
  0.312500000      0.224999994       1.09791732      0.143769562       1.10729039    
  0.312500000      0.275000006       1.16287518      0.145813078       1.17198133    
  0.312500000      0.324999988       1.19742548      0.130923331       1.20456159    
  0.312500000      0.375000000       1.21352983      0.102642104       1.21786284    
  0.312500000      0.425000012       1.21976149       6.50132522E-02   1.22149289    
  0.312500000      0.475000024       1.22157216       2.19553467E-02   1.22176945    
  0.312500000      0.524999976       1.22159624      -2.28726193E-02   1.22181034    
  0.312500000      0.575000048       1.21983075      -6.59288168E-02   1.22161114    
  0.312500000      0.625000000       1.21363950     -0.103554070       1.21804941    
  0.312500000      0.675000012       1.19756746     -0.131826609       1.20480120    
  0.312500000      0.725000024       1.16303778     -0.146699905       1.17225325    
  0.312500000      0.774999976       1.09808540     -0.144631088       1.10756934    
  0.312500000      0.825000048      0.987414539     -0.123927310      0.995160997    
  0.312500000      0.875000000      0.813321590      -8.69732797E-02  0.817958653    
  0.312500000      0.925000012      0.558534026      -4.31459211E-02  0.560198009    
  0.312500000      0.975000024      0.212904125      -1.06105469E-02  0.213168353    
  0.312500000       1.00000000       0.00000000       0.00000000       0.00000000    
  0.437500000       0.00000000       0.00000000       0.00000000       0.00000000    
  0.437500000       2.50000004E-02  0.168336332       2.77154939E-03  0.168359146    
  0.437500000       7.50000030E-02  0.466689736       1.52154192E-02  0.466937691    
  0.437500000      0.125000000      0.715142250       3.70994471E-02  0.716103911    
  0.437500000      0.175000012      0.910248637       5.99572137E-02  0.912221193    
  0.437500000      0.224999994       1.05521464       7.69226551E-02   1.05801463    
  0.437500000      0.275000006       1.15724468       8.39637071E-02   1.16028666    
  0.437500000      0.324999988       1.22512281       7.97781721E-02   1.22771764    
  0.437500000      0.375000000       1.26742768       6.51732683E-02   1.26910222    
  0.437500000      0.425000012       1.29135442       4.23582494E-02   1.29204893    
  0.437500000      0.475000024       1.30200982       1.43563217E-02   1.30208898    
  0.437500000      0.524999976       1.30202627      -1.54102957E-02   1.30211747    
  0.437500000      0.575000048       1.29140055      -4.34017628E-02   1.29212976    
  0.437500000      0.625000000       1.26749563      -6.61953390E-02   1.26922297    
  0.437500000      0.675000012       1.22520256      -8.07674229E-02   1.22786188    
  0.437500000      0.725000024       1.15732300      -8.49099457E-02   1.16043365    
  0.437500000      0.774999976       1.05527818      -7.78180063E-02   1.05814350    
  0.437500000      0.825000048      0.910286903      -6.07960783E-02  0.912314832    
  0.437500000      0.875000000      0.715154171      -3.78806479E-02  0.716156662    
  0.437500000      0.925000012      0.466686517      -1.59358140E-02  0.466958523    
  0.437500000      0.975000024      0.168341011      -3.11548985E-03  0.168369845    
  0.437500000       1.00000000       0.00000000       0.00000000       0.00000000    
  0.562500000       0.00000000       0.00000000       0.00000000       0.00000000    
  0.562500000       2.50000004E-02  0.149406940       3.11849471E-05  0.149406940    
  0.562500000       7.50000030E-02  0.420391619       3.77365411E-03  0.420408547    
  0.562500000      0.125000000      0.657210231       1.33168325E-02  0.657345116    
  0.562500000      0.175000012      0.855938792       2.51001641E-02  0.856306732    
  0.562500000      0.224999994       1.01577842       3.53821963E-02   1.01639450    
  0.562500000      0.275000006       1.13874459       4.12668064E-02   1.13949203    
  0.562500000      0.324999988       1.22877574       4.11427505E-02   1.22946441    
  0.562500000      0.375000000       1.29064107       3.47530171E-02   1.29110885    
  0.562500000      0.425000012       1.32890129       2.30160728E-02   1.32910061    
  0.562500000      0.475000024       1.34707999       7.72351492E-03   1.34710217    
  0.562500000      0.524999976       1.34708095      -8.80748965E-03   1.34710979    
  0.562500000      0.575000048       1.32889998      -2.40854397E-02   1.32911825    
  0.562500000      0.625000000       1.29063082      -3.57937366E-02   1.29112697    
  0.562500000      0.675000012       1.22874904      -4.21420150E-02   1.22947145    
  0.562500000      0.725000024       1.13869429      -4.22141217E-02   1.13947654    
  0.562500000      0.774999976       1.01570046      -3.62712964E-02   1.01634789    
  0.562500000      0.825000048      0.855834723      -2.59287618E-02  0.856227398    
  0.562500000      0.875000000      0.657095373      -1.40875382E-02  0.657246351    
  0.562500000      0.925000012      0.420296252      -4.48640529E-03  0.420320213    
  0.562500000      0.975000024      0.149372876      -3.72344512E-04  0.149373338    
  0.562500000       1.00000000       0.00000000       0.00000000       0.00000000    
  0.687500000       0.00000000       0.00000000       0.00000000       0.00000000    
  0.687500000       2.50000004E-02  0.140231580      -1.12988905E-03  0.140236124    
  0.687500000       7.50000030E-02  0.396094739      -1.38775073E-03  0.396097183    
  0.687500000      0.125000000      0.623930216       1.83536659E-03  0.623932898    
  0.687500000      0.175000012      0.821013689       7.07856193E-03  0.821044207    
  0.687500000      0.224999994      0.985918880       1.24590686E-02  0.985997617    
  0.687500000      0.275000006       1.11871028       1.62829552E-02   1.11882877    
  0.687500000      0.324999988       1.22075081       1.73827782E-02   1.22087455    
  0.687500000      0.375000000       1.29422188       1.53024504E-02   1.29431236    
  0.687500000      0.425000012       1.34150159       1.03189331E-02   1.34154129    
  0.687500000      0.475000024       1.36457419       3.32570868E-03   1.36457825    
  0.687500000      0.524999976       1.36455679      -4.37937444E-03   1.36456382    
  0.687500000      0.575000048       1.34144449      -1.13572581E-02   1.34149253    
  0.687500000      0.625000000       1.29412305      -1.63109116E-02   1.29422581    
  0.687500000      0.675000012       1.22060919      -1.83506869E-02   1.22074711    
  0.687500000      0.725000024       1.11852562      -1.72025226E-02   1.11865783    
  0.687500000      0.774999976      0.985699356      -1.33249750E-02  0.985789418    
  0.687500000      0.825000048      0.820774317      -7.88978115E-03  0.820812225    
  0.687500000      0.875000000      0.623700678      -2.59588705E-03  0.623706102    
  0.687500000      0.925000012      0.395919323       6.78512326E-04  0.395919919    
  0.687500000      0.975000024      0.140166223       7.89058802E-04  0.140168443    
  0.687500000       1.00000000       0.00000000       0.00000000       0.00000000    
  0.812500000       0.00000000       0.00000000       0.00000000       0.00000000    
  0.812500000       2.50000004E-02  0.135248184      -1.64570182E-03  0.135258198    
  0.812500000       7.50000030E-02  0.382252872      -3.76238581E-03  0.382271379    
  0.812500000      0.125000000      0.603770375      -3.64966784E-03  0.603781402    
  0.812500000      0.175000012      0.797986031      -1.87365548E-03  0.797988236    
  0.812500000      0.224999994      0.963613689       6.27302623E-04  0.963613868    
  0.812500000      0.275000006       1.10009158       2.92379223E-03   1.10009551    
  0.812500000      0.324999988       1.20759463       4.28635348E-03   1.20760226    
  0.812500000      0.375000000       1.28686500       4.32421267E-03   1.28687227    
  0.812500000      0.425000012       1.33890676       3.03982757E-03   1.33891022    
  0.812500000      0.475000024       1.36463737       7.97056942E-04   1.36463761    
  0.812500000      0.524999976       1.36460114      -1.78983458E-03   1.36460233    
  0.812500000      0.575000048       1.33879685      -4.01887204E-03   1.33880281    
  0.812500000      0.625000000       1.28668523      -5.27802203E-03   1.28669608    
  0.812500000      0.675000012       1.20734870      -5.20578027E-03   1.20735991    
  0.812500000      0.725000024       1.09978843      -3.80226597E-03   1.09979498    
  0.812500000      0.774999976      0.963271916      -1.46145141E-03  0.963273048    
  0.812500000      0.825000048      0.797632635       1.08402409E-03  0.797633410    
  0.812500000      0.875000000      0.603446007       2.90158438E-03  0.603452981    
  0.812500000      0.925000012      0.382012427       3.05898208E-03  0.382024676    
  0.812500000      0.975000024      0.135157228       1.30649668E-03  0.135163546    
  0.812500000       1.00000000       0.00000000       0.00000000       0.00000000    
  0.937500000       0.00000000       0.00000000       0.00000000       0.00000000    
  0.937500000       2.50000004E-02  0.132122755      -1.87284837E-03  0.132136032    
  0.937500000       7.50000030E-02  0.373319685      -4.83722007E-03  0.373351008    
  0.937500000      0.125000000      0.590166688      -6.20013941E-03  0.590199292    
  0.937500000      0.175000012      0.781378984      -6.14737486E-03  0.781403184    
  0.937500000      0.224999994      0.945887446      -5.16641885E-03  0.945901573    
  0.937500000      0.275000006       1.08296657      -3.77208553E-03   1.08297312    
  0.937500000      0.324999988       1.19228673      -2.41014571E-03   1.19228923    
  0.937500000      0.375000000       1.27387500      -1.37698080E-03   1.27387571    
  0.937500000      0.425000012       1.32798398      -7.76056724E-04   1.32798421    
  0.937500000      0.475000024       1.35491204      -5.23168768E-04   1.35491216    
  0.937500000      0.524999976       1.35486102      -3.99094657E-04   1.35486102    
  0.937500000      0.575000048       1.32783246      -1.36453978E-04   1.32783246    
  0.937500000      0.625000000       1.27362943       4.82946722E-04   1.27362955    
  0.937500000      0.675000012       1.19195604       1.54229649E-03   1.19195700    
  0.937500000      0.725000024       1.08256841       2.93634320E-03   1.08257234    
  0.937500000      0.774999976      0.945449173       4.36550099E-03  0.945459247    
  0.937500000      0.825000048      0.780936480       5.38066681E-03  0.780955017    
  0.937500000      0.875000000      0.589768767       5.46544697E-03  0.589794099    
  0.937500000      0.925000012      0.373030066       4.13976237E-03  0.373053014    
  0.937500000      0.975000024      0.132014230       1.53505546E-03  0.132023156    
  0.937500000       1.00000000       0.00000000       0.00000000       0.00000000    
   1.06250000       0.00000000       0.00000000       0.00000000       0.00000000    
   1.06250000       2.50000004E-02  0.129806757      -1.96932256E-03  0.129821688    
   1.06250000       7.50000030E-02  0.366624475      -5.30460384E-03  0.366662860    
   1.06250000      0.125000000      0.579683661      -7.33530149E-03  0.579730034    
   1.06250000      0.175000012      0.767984271      -8.09221528E-03  0.768026888    
   1.06250000      0.224999994      0.930614471      -7.85669126E-03  0.930647612    
   1.06250000      0.275000006       1.06683111      -6.93711452E-03   1.06685364    
   1.06250000      0.324999988       1.17610860      -5.62270172E-03   1.17612207    
   1.06250000      0.375000000       1.25814748      -4.14153095E-03   1.25815427    
   1.06250000      0.425000012       1.31282628      -2.63609202E-03   1.31282890    
   1.06250000      0.475000024       1.34012592      -1.15989475E-03   1.34012640    
   1.06250000      0.524999976       1.34006476       3.01004649E-04   1.34006488    
   1.06250000      0.575000048       1.31264377       1.78490649E-03   1.31264496    
   1.06250000      0.625000000       1.25785112       3.30429897E-03   1.25785553    
   1.06250000      0.675000012       1.17571425       4.80496138E-03   1.17572403    
   1.06250000      0.725000024       1.06636214       6.14249054E-03   1.06637990    
   1.06250000      0.774999976      0.930105090       7.08586909E-03  0.930132091    
   1.06250000      0.825000048      0.767476559       7.34507712E-03  0.767511666    
   1.06250000      0.875000000      0.579233706       6.61133649E-03  0.579271436    
   1.06250000      0.925000012      0.366300434       4.61082533E-03  0.366329461    
   1.06250000      0.975000024      0.129684836       1.63187413E-03  0.129695103    
   1.06250000       1.00000000       0.00000000       0.00000000       0.00000000    
   1.18750000       0.00000000       0.00000000       0.00000000       0.00000000    
   1.18750000       2.50000004E-02  0.127822369      -2.00601202E-03  0.127838105    
   1.18750000       7.50000030E-02  0.360899448      -5.49183134E-03  0.360941231    
   1.18750000      0.125000000      0.570608795      -7.80664757E-03  0.570662200    
   1.18750000      0.175000012      0.756098270      -8.92153382E-03  0.756150901    
   1.18750000      0.224999994      0.916552424      -9.02917329E-03  0.916596889    
   1.18750000      0.275000006       1.05124903      -8.34034476E-03   1.05128217    
   1.18750000      0.324999988       1.15959716      -7.06555368E-03   1.15961874    
   1.18750000      0.375000000       1.24116015      -5.39446389E-03   1.24117184    
   1.18750000      0.425000012       1.29564857      -3.48117459E-03   1.29565322    
   1.18750000      0.475000024       1.32289410      -1.44151598E-03   1.32289481    
   1.18750000      0.524999976       1.32282591       6.38236175E-04   1.32282603    
   1.18750000      0.575000048       1.29544377       2.68298946E-03   1.29544652    
   1.18750000      0.625000000       1.24082804       4.60587442E-03   1.24083662    
   1.18750000      0.675000012       1.15915799       6.28987793E-03   1.15917504    
   1.18750000      0.725000024       1.05073166       7.57942908E-03   1.05075896    
   1.18750000      0.774999976      0.915994883       8.28395970E-03  0.916032314    
   1.18750000      0.825000048      0.755547404       8.19256715E-03  0.755591810    
   1.18750000      0.875000000      0.570125341       7.09369499E-03  0.570169449    
   1.18750000      0.925000012      0.360553861       4.80346382E-03  0.360585839    
   1.18750000      0.975000024      0.127692848       1.67017651E-03  0.127703771    
   1.18750000       1.00000000       0.00000000       0.00000000       0.00000000    
   1.31250000       0.00000000       0.00000000       0.00000000       0.00000000    
   1.31250000       2.50000004E-02  0.125960410      -2.01856298E-03  0.125976577    
   1.31250000       7.50000030E-02  0.355565578      -5.55967726E-03  0.355609030    
   1.31250000      0.125000000      0.562129259      -7.98500329E-03  0.562185943    
   1.31250000      0.175000012      0.744875431      -9.24540497E-03  0.744932830    
   1.31250000      0.224999994      0.903046608      -9.49790888E-03  0.903096557    
   1.31250000      0.275000006       1.03594542      -8.91203061E-03   1.03598380    
   1.31250000      0.324999988       1.14296794      -7.66160712E-03   1.14299357    
   1.31250000      0.375000000       1.22362804      -5.91545785E-03   1.22364235    
   1.31250000      0.425000012       1.27756810      -3.83096421E-03   1.27757382    
   1.31250000      0.475000024       1.30455756      -1.55149668E-03   1.30455852    
   1.31250000      0.524999976       1.30448437       7.92687584E-04   1.30448461    
   1.31250000      0.575000048       1.27734923       3.07549164E-03   1.27735293    
   1.31250000      0.625000000       1.22327447       5.16504096E-03   1.22328544    
   1.31250000      0.675000012       1.14250135       6.91837631E-03   1.14252234    
   1.31250000      0.725000024       1.03539872       8.17749090E-03   1.03543103    
   1.31250000      0.774999976      0.902460277       8.77235271E-03  0.902502894    
   1.31250000      0.825000048      0.744300127       8.52910057E-03  0.744348943    
   1.31250000      0.875000000      0.561627030       7.27861375E-03  0.561674178    
   1.31250000      0.925000012      0.355208457       4.87308670E-03  0.355241895    
   1.31250000      0.975000024      0.125826985       1.68259279E-03  0.125838235    
   1.31250000       1.00000000       0.00000000       0.00000000       0.00000000    
   1.43750000       0.00000000       0.00000000       0.00000000       0.00000000    
   1.43750000       2.50000004E-02  0.124136627      -2.02138838E-03  0.124153078    
   1.43750000       7.50000030E-02  0.350370884      -5.57828974E-03  0.350415289    
   1.43750000      0.125000000      0.553877473      -8.03976879E-03  0.553935826    
   1.43750000      0.175000012      0.733920157      -9.35242511E-03  0.733979702    
   1.43750000      0.224999994      0.889776886      -9.66088288E-03  0.889829338    
   1.43750000      0.275000006       1.02077127      -9.11783800E-03   1.02081192    
   1.43750000      0.324999988       1.12630439      -7.88125955E-03   1.12633193    
   1.43750000      0.375000000       1.20587921      -6.10994734E-03   1.20589471    
   1.43750000      0.425000012       1.25911522      -3.96103505E-03   1.25912142    
   1.43750000      0.475000024       1.28575897      -1.58752850E-03   1.28575993    
   1.43750000      0.524999976       1.28568232       8.61249631E-04   1.28568256    
   1.43750000      0.575000048       1.25888896       3.23627563E-03   1.25889313    
   1.43750000      0.625000000       1.20551407       5.38770389E-03   1.20552611    
   1.43750000      0.675000012       1.12582445       7.16247829E-03   1.12584722    
   1.43750000      0.725000024       1.02021015       8.40297714E-03   1.02024472    
   1.43750000      0.774999976      0.889176786       8.94990750E-03  0.889221847    
   1.43750000      0.825000048      0.733334124       8.64587724E-03  0.733385086    
   1.43750000      0.875000000      0.553367615       7.33898859E-03  0.553416252    
   1.43750000      0.925000012      0.350009084       4.89462120E-03  0.350043297    
   1.43750000      0.975000024      0.124001503       1.68647117E-03  0.124012969    
   1.43750000       1.00000000       0.00000000       0.00000000       0.00000000    
   1.56250000       0.00000000       0.00000000       0.00000000       0.00000000    
   1.56250000       2.50000004E-02  0.122317940      -2.02071643E-03  0.122334629    
   1.56250000       7.50000030E-02  0.345212877      -5.57874516E-03  0.345257938    
   1.56250000      0.125000000      0.545697808      -8.04773904E-03  0.545757115    
   1.56250000      0.175000012      0.723059535      -9.37489234E-03  0.723120332    
   1.56250000      0.224999994      0.876597285      -9.70178749E-03  0.876650929    
   1.56250000      0.275000006       1.00565207      -9.17460676E-03   1.00569391    
   1.56250000      0.324999988       1.10963655      -7.94445258E-03   1.10966504    
   1.56250000      0.375000000       1.18805516      -6.16673334E-03   1.18807113    
   1.56250000      0.425000012       1.24052477      -3.99742834E-03   1.24053121    
   1.56250000      0.475000024       1.26678610      -1.59291201E-03   1.26678705    
   1.56250000      0.524999976       1.26670885       8.89507646E-04   1.26670921    
   1.56250000      0.575000048       1.24029589       3.29383789E-03   1.24030030    
   1.56250000      0.625000000       1.18768573       5.46388049E-03   1.18769825    
   1.56250000      0.675000012       1.10915244       7.24204350E-03   1.10917604    
   1.56250000      0.725000024       1.00508726       8.47222470E-03   1.00512290    
   1.56250000      0.774999976      0.875994503       9.00000334E-03  0.876040697    
   1.56250000      0.825000048      0.722472072       8.67449306E-03  0.722524166    
   1.56250000      0.875000000      0.545188189       7.35019380E-03  0.545237720    
   1.56250000      0.925000012      0.344852507       4.89588082E-03  0.344887257    
   1.56250000      0.975000024      0.122184530       1.68567232E-03  0.122196153    
   1.56250000       1.00000000       0.00000000       0.00000000       0.00000000    
   1.68750000       0.00000000       0.00000000       0.00000000       0.00000000    
   1.68750000       2.50000004E-02  0.120495737      -2.01922795E-03  0.120512649    
   1.68750000       7.50000030E-02  0.340057313      -5.57475630E-03  0.340103000    
   1.68750000      0.125000000      0.537532568      -8.04286543E-03  0.537592769    
   1.68750000      0.175000012      0.712223887      -9.37150978E-03  0.712285519    
   1.68750000      0.224999994      0.863445640      -9.70155746E-03  0.863500118    
   1.68750000      0.275000006      0.990553617      -9.17841867E-03  0.990596116    
   1.68750000      0.324999988       1.09297156      -7.95161258E-03   1.09300053    
   1.68750000      0.375000000       1.17021108      -6.17367821E-03   1.17022741    
   1.68750000      0.425000012       1.22189331      -4.00057063E-03   1.22189987    
   1.68750000      0.475000024       1.24776053      -1.58986449E-03   1.24776149    
   1.68750000      0.524999976       1.24768376       9.00288927E-04   1.24768412    
   1.68750000      0.575000048       1.22166491       3.31071299E-03   1.22166944    
   1.68750000      0.625000000       1.16984296       5.48280124E-03   1.16985583    
   1.68750000      0.675000012       1.09248936       7.25943642E-03   1.09251356    
   1.68750000      0.725000024      0.989991605       8.48490745E-03  0.990027964    
   1.68750000      0.774999976      0.862847567       9.00623109E-03  0.862894595    
   1.68750000      0.825000048      0.711641431       8.67488980E-03  0.711694360    
   1.68750000      0.875000000      0.537028551       7.34750461E-03  0.537078798    
   1.68750000      0.925000012      0.339701474       4.89328988E-03  0.339736700    
   1.68750000      0.975000024      0.120363146       1.68468338E-03  0.120374933    
   1.68750000       1.00000000       0.00000000       0.00000000       0.00000000    
   1.81250000       0.00000000       0.00000000       0.00000000       0.00000000    
   1.81250000       2.50000004E-02  0.118668839      -2.01822631E-03  0.118685998    
   1.81250000       7.50000030E-02  0.334894627      -5.57093322E-03  0.334940940    
   1.81250000      0.125000000      0.529363036      -8.03571660E-03  0.529424012    
   1.81250000      0.175000012      0.701388717      -9.36212018E-03  0.701451182    
   1.81250000      0.224999994      0.850298703      -9.69142653E-03  0.850353897    
   1.81250000      0.275000006      0.975461364      -9.16871428E-03  0.975504458    
   1.81250000      0.324999988       1.07630992      -7.94304255E-03   1.07633924    
   1.81250000      0.375000000       1.15236616      -6.16666954E-03   1.15238261    
   1.81250000      0.425000012       1.20325661      -3.99496639E-03   1.20326328    
   1.81250000      0.475000024       1.22872639      -1.58532534E-03   1.22872734    
   1.81250000      0.524999976       1.22865081       9.03632026E-04   1.22865117    
   1.81250000      0.575000048       1.20303035       3.31252045E-03   1.20303488    
   1.81250000      0.625000000       1.15200210       5.48248645E-03   1.15201509    
   1.81250000      0.675000012       1.07583344       7.25663453E-03   1.07585788    
   1.81250000      0.725000024      0.974905968       8.47979449E-03  0.974942863    
   1.81250000      0.774999976      0.849708557       8.99965316E-03  0.849756241    