 TITLE= "TESTPLOT" 
 VARIABLES="x","y","fx","fy","magf" 
 ZONE T="1", I=          81 , J=          21
   0.00000000       0.00000000       1.00000000       0.00000000       1.00000000    
   0.00000000       2.50000004E-02   1.00000000       0.00000000       1.00000000    
   0.00000000       7.50000030E-02   1.00000000       0.00000000       1.00000000    
   0.00000000      0.125000000       1.00000000       0.00000000       1.00000000    
   0.00000000      0.175000012       1.00000000       0.00000000       1.00000000    
   0.00000000      0.224999994       1.00000000       0.00000000       1.00000000    
   0.00000000      0.275000006       1.00000000       0.00000000       1.00000000    
   0.00000000      0.324999988       1.00000000       0.00000000       1.00000000    
   0.00000000      0.375000000       1.00000000       0.00000000       1.00000000    
   0.00000000      0.425000012       1.00000000       0.00000000       1.00000000    
   0.00000000      0.475000024       1.00000000       0.00000000       1.00000000    
   0.00000000      0.524999976       1.00000000       0.00000000       1.00000000    
   0.00000000      0.575000048       1.00000000       0.00000000       1.00000000    
   0.00000000      0.625000000       1.00000000       0.00000000       1.00000000    
   0.00000000      0.675000012       1.00000000       0.00000000       1.00000000    
   0.00000000      0.725000024       1.00000000       0.00000000       1.00000000    
   0.00000000      0.774999976       1.00000000       0.00000000       1.00000000    
   0.00000000      0.825000048       1.00000000       0.00000000       1.00000000    
   0.00000000      0.875000000       1.00000000       0.00000000       1.00000000    
   0.00000000      0.925000012       1.00000000       0.00000000       1.00000000    
   0.00000000      0.975000024       1.00000000       0.00000000       1.00000000    
   0.00000000       1.00000000       1.00000000       0.00000000       1.00000000    
   6.25000000E-02   0.00000000      0.500000000       0.00000000      0.500000000    
   6.25000000E-02   2.50000004E-02  0.716381311      0.111083873      0.724942625    
   6.25000000E-02   7.50000030E-02  0.919971883      0.251637250      0.953765988    
   6.25000000E-02  0.125000000       1.01073027      0.274276912       1.04728389    
   6.25000000E-02  0.175000012       1.04560137      0.246670350       1.07430375    
   6.25000000E-02  0.224999994       1.05378914      0.201842785       1.07294548    
   6.25000000E-02  0.275000006       1.05049419      0.155059576       1.06187642    
   6.25000000E-02  0.324999988       1.04348922      0.112397030       1.04952502    
   6.25000000E-02  0.375000000       1.03656054       7.53078163E-02   1.03929257    
   6.25000000E-02  0.425000012       1.03141379       4.30487469E-02   1.03231180    
   6.25000000E-02  0.475000024       1.02873230       1.39212199E-02   1.02882648    
   6.25000000E-02  0.524999976       1.02873838      -1.41365100E-02   1.02883554    
   6.25000000E-02  0.575000048       1.03143191      -4.32744473E-02   1.03233933    
   6.25000000E-02  0.625000000       1.03659129      -7.55535439E-02   1.03934109    
   6.25000000E-02  0.675000012       1.04353452     -0.112673804       1.04959977    
   6.25000000E-02  0.725000024       1.05055630     -0.155380160       1.06198478    
   6.25000000E-02  0.774999976       1.05386758     -0.202219546       1.07309341    
   6.25000000E-02  0.825000048       1.04569435     -0.247114211       1.07449615    
   6.25000000E-02  0.875000000       1.01083219     -0.274795473       1.04751813    
   6.25000000E-02  0.925000012      0.920069575     -0.252220601      0.954014301    
   6.25000000E-02  0.975000024      0.716450512     -0.111388631      0.725057721    
   6.25000000E-02   1.00000000      0.500000000       0.00000000      0.500000000    
  0.187500000       0.00000000       0.00000000       0.00000000       0.00000000    
  0.187500000       2.50000004E-02  0.338618875       3.52733657E-02  0.340451092    
  0.187500000       7.50000030E-02  0.729764879      0.112050556      0.738317072    
  0.187500000      0.125000000      0.947876930      0.180423349      0.964895487    
  0.187500000      0.175000012       1.06122065      0.216722190       1.08312404    
  0.187500000      0.224999994       1.11299610      0.221422642       1.13480759    
  0.187500000      0.275000006       1.13064098      0.202269733       1.14859128    
  0.187500000      0.324999988       1.13128376      0.167562068       1.14362574    
  0.187500000      0.375000000       1.12529540      0.123846009       1.13208985    
  0.187500000      0.425000012       1.11869156       7.55062848E-02   1.12123680    
  0.187500000      0.475000024       1.11470199       2.51411498E-02   1.11498547    
  0.187500000      0.524999976       1.11472034      -2.57759113E-02   1.11501825    
  0.187500000      0.575000048       1.11874604      -7.61506706E-02   1.12133479    
  0.187500000      0.625000000       1.12538481     -0.124508366       1.13225138    
  0.187500000      0.675000012       1.13140750     -0.168248683       1.14384902    
  0.187500000      0.725000024       1.13079739     -0.202982396       1.14887094    
  0.187500000      0.774999976       1.11317754     -0.222157881       1.13512921    
  0.187500000      0.825000048       1.06141758     -0.217470676       1.08346701    
  0.187500000      0.875000000      0.948072433     -0.181169093      0.965227187    
  0.187500000      0.925000012      0.729934812     -0.112767026      0.738594115    
  0.187500000      0.975000024      0.338727295      -3.56199779E-02  0.340595007    
  0.187500000       1.00000000       0.00000000       0.00000000       0.00000000    
  0.312500000       0.00000000       0.00000000       0.00000000       0.00000000    
  0.312500000       2.50000004E-02  0.212850362       1.02655925E-02  0.213097766    
  0.312500000       7.50000030E-02  0.558436751       4.24229950E-02  0.560045779    
  0.312500000      0.125000000      0.813186765       8.61927867E-02  0.817741930    
  0.312500000      0.175000012      0.987253904      0.123101570      0.994899154    
  0.312500000      0.224999994       1.09791493      0.143769637       1.10728812    
  0.312500000      0.275000006       1.16287255      0.145813048       1.17197871    
  0.312500000      0.324999988       1.19742310      0.130923331       1.20455921    
  0.312500000      0.375000000       1.21352792      0.102642313       1.21786106    
  0.312500000      0.425000012       1.21975935       6.50135428E-02   1.22149074    
  0.312500000      0.475000024       1.22156954       2.19556186E-02   1.22176683    
  0.312500000      0.524999976       1.22159362      -2.28724685E-02   1.22180772    
  0.312500000      0.575000048       1.21982896      -6.59288839E-02   1.22160935    
  0.312500000      0.625000000       1.21363759     -0.103554279       1.21804750    
  0.312500000      0.675000012       1.19756556     -0.131827027       1.20479941    
  0.312500000      0.725000024       1.16303563     -0.146700650       1.17225122    
  0.312500000      0.774999976       1.09808350     -0.144631937       1.10756755    
  0.312500000      0.825000048      0.987411737     -0.123928115      0.995158315    
  0.312500000      0.875000000      0.813318431      -8.69742036E-02  0.817955613    
  0.312500000      0.925000012      0.558531046      -4.31468897E-02  0.560195148    
  0.312500000      0.975000024      0.212901697      -1.06110023E-02  0.213165954    
  0.312500000       1.00000000       0.00000000       0.00000000       0.00000000    
  0.437500000       0.00000000       0.00000000       0.00000000       0.00000000    
  0.437500000       2.50000004E-02  0.168334201       2.77174055E-03  0.168357030    
  0.437500000       7.50000030E-02  0.466686428       1.52157964E-02  0.466934413    
  0.437500000      0.125000000      0.715138853       3.70997451E-02  0.716100514    
  0.437500000      0.175000012      0.910245538       5.99574372E-02  0.912218094    
  0.437500000      0.224999994       1.05521178       7.69227743E-02   1.05801177    
  0.437500000      0.275000006       1.15724123       8.39636922E-02   1.16028321    
  0.437500000      0.324999988       1.22511911       7.97781497E-02   1.22771394    
  0.437500000      0.375000000       1.26742411       6.51734471E-02   1.26909864    
  0.437500000      0.425000012       1.29135084       4.23586741E-02   1.29204535    
  0.437500000      0.475000024       1.30200672       1.43565992E-02   1.30208588    
  0.437500000      0.524999976       1.30202341      -1.54105015E-02   1.30211461    
  0.437500000      0.575000048       1.29139805      -4.34023663E-02   1.29212713    
  0.437500000      0.625000000       1.26749325      -6.61962628E-02   1.26922059    
  0.437500000      0.675000012       1.22519970      -8.07684883E-02   1.22785902    
  0.437500000      0.725000024       1.15731966      -8.49107280E-02   1.16043031    
  0.437500000      0.774999976       1.05527449      -7.78184384E-02   1.05813980    
  0.437500000      0.825000048      0.910283208      -6.07965216E-02  0.912311196    
  0.437500000      0.875000000      0.715150237      -3.78808007E-02  0.716152787    
  0.437500000      0.925000012      0.466682255      -1.59354415E-02  0.466954261    
  0.437500000      0.975000024      0.168337256      -3.11525678E-03  0.168366075    
  0.437500000       1.00000000       0.00000000       0.00000000       0.00000000    
  0.562500000       0.00000000       0.00000000       0.00000000       0.00000000    
  0.562500000       2.50000004E-02  0.149404287       3.08532835E-05  0.149404302    
  0.562500000       7.50000030E-02  0.420387447       3.77296051E-03  0.420404375    
  0.562500000      0.125000000      0.657205820       1.33161945E-02  0.657340705    
  0.562500000      0.175000012      0.855934620       2.50996444E-02  0.856302559    
  0.562500000      0.224999994       1.01577449       3.53817493E-02   1.01639044    
  0.562500000      0.275000006       1.13874006       4.12663966E-02   1.13948750    
  0.562500000      0.324999988       1.22877097       4.11422625E-02   1.22945952    
  0.562500000      0.375000000       1.29063570       3.47524844E-02   1.29110348    
  0.562500000      0.425000012       1.32889652       2.30154991E-02   1.32909584    
  0.562500000      0.475000024       1.34707654       7.72271398E-03   1.34709871    
  0.562500000      0.524999976       1.34707701      -8.80832039E-03   1.34710586    
  0.562500000      0.575000048       1.32889616      -2.40859874E-02   1.32911444    
  0.562500000      0.625000000       1.29062688      -3.57938483E-02   1.29112315    
  0.562500000      0.675000012       1.22874498      -4.21419367E-02   1.22946751    
  0.562500000      0.725000024       1.13868952      -4.22142893E-02   1.13947177    
  0.562500000      0.774999976       1.01569533      -3.62717956E-02   1.01634276    
  0.562500000      0.825000048      0.855830431      -2.59296149E-02  0.856223106    
  0.562500000      0.875000000      0.657090962      -1.40887527E-02  0.657242000    
  0.562500000      0.925000012      0.420291603      -4.48740926E-03  0.420315534    
  0.562500000      0.975000024      0.149369359      -3.72659240E-04  0.149369821    
  0.562500000       1.00000000       0.00000000       0.00000000       0.00000000    
  0.687500000       0.00000000       0.00000000       0.00000000       0.00000000    
  0.687500000       2.50000004E-02  0.140228763      -1.12988614E-03  0.140233323    
  0.687500000       7.50000030E-02  0.396089673      -1.38778705E-03  0.396092087    
  0.687500000      0.125000000      0.623924851       1.83514948E-03  0.623927534    
  0.687500000      0.175000012      0.821008563       7.07808416E-03  0.821039081    
  0.687500000      0.224999994      0.985913873       1.24584027E-02  0.985992610    
  0.687500000      0.275000006       1.11870480       1.62820835E-02   1.11882329    
  0.687500000      0.324999988       1.22074556       1.73815526E-02   1.22086930    
  0.687500000      0.375000000       1.29421544       1.53014977E-02   1.29430592    
  0.687500000      0.425000012       1.34149599       1.03185903E-02   1.34153569    
  0.687500000      0.475000024       1.36456966       3.32559505E-03   1.36457372    
  0.687500000      0.524999976       1.36455154      -4.37894044E-03   1.36455858    
  0.687500000      0.575000048       1.34143996      -1.13565102E-02   1.34148800    
  0.687500000      0.625000000       1.29411769      -1.63103752E-02   1.29422045    
  0.687500000      0.675000012       1.22060382      -1.83501802E-02   1.22074175    
  0.687500000      0.725000024       1.11852026      -1.72020793E-02   1.11865246    
  0.687500000      0.774999976      0.985693693      -1.33247664E-02  0.985783756    
  0.687500000      0.825000048      0.820769131      -7.88969174E-03  0.820807040    
  0.687500000      0.875000000      0.623695254      -2.59569520E-03  0.623700678    
  0.687500000      0.925000012      0.395914108       6.78858720E-04  0.395914704    
  0.687500000      0.975000024      0.140162826       7.89258513E-04  0.140165046    
  0.687500000       1.00000000       0.00000000       0.00000000       0.00000000    
  0.812500000       0.00000000       0.00000000       0.00000000       0.00000000    
  0.812500000       2.50000004E-02  0.135244399      -1.64575945E-03  0.135254413    
  0.812500000       7.50000030E-02  0.382246822      -3.76253715E-03  0.382265329    
  0.812500000      0.125000000      0.603764296      -3.64994095E-03  0.603775322    
  0.812500000      0.175000012      0.797980130      -1.87408458E-03  0.797982335    
  0.812500000      0.224999994      0.963607788       6.26686146E-04  0.963608027    
  0.812500000      0.275000006       1.10008550       2.92291283E-03   1.10008943    
  0.812500000      0.324999988       1.20758891       4.28520236E-03   1.20759654    
  0.812500000      0.375000000       1.28685939       4.32286831E-03   1.28686666    
  0.812500000      0.425000012       1.33890152       3.03882849E-03   1.33890498    
  0.812500000      0.475000024       1.36463296       7.96942506E-04   1.36463320    
  0.812500000      0.524999976       1.36459708      -1.78915553E-03   1.36459827    
  0.812500000      0.575000048       1.33879280      -4.01769765E-03   1.33879876    
  0.812500000      0.625000000       1.28667951      -5.27671352E-03   1.28669035    
  0.812500000      0.675000012       1.20734239      -5.20461425E-03   1.20735359    
  0.812500000      0.725000024       1.09978235      -3.80124850E-03   1.09978890    
  0.812500000      0.774999976      0.963265657      -1.46064581E-03  0.963266730    
  0.812500000      0.825000048      0.797626317       1.08462409E-03  0.797627091    
  0.812500000      0.875000000      0.603439450       2.90196831E-03  0.603446424    
  0.812500000      0.925000012      0.382006228       3.05905007E-03  0.382018477    
  0.812500000      0.975000024      0.135153443       1.30646082E-03  0.135159746    
  0.812500000       1.00000000       0.00000000       0.00000000       0.00000000    
  0.937500000       0.00000000       0.00000000       0.00000000       0.00000000    
  0.937500000       2.50000004E-02  0.132118449      -1.87304255E-03  0.132131711    
  0.937500000       7.50000030E-02  0.373312622      -4.83771274E-03  0.373343974    
  0.937500000      0.125000000      0.590159476      -6.20072801E-03  0.590192020    
  0.937500000      0.175000012      0.781372309      -6.14816975E-03  0.781396508    
  0.937500000      0.224999994      0.945880830      -5.16762026E-03  0.945894957    
  0.937500000      0.275000006       1.08295989      -3.77306296E-03   1.08296645    
  0.937500000      0.324999988       1.19228029      -2.41068518E-03   1.19228268    
  0.937500000      0.375000000       1.27386975      -1.37729163E-03   1.27387047    
  0.937500000      0.425000012       1.32797909      -7.76204804E-04   1.32797933    
  0.937500000      0.475000024       1.35490847      -5.23521681E-04   1.35490859    
  0.937500000      0.524999976       1.35485744      -3.99355718E-04   1.35485744    
  0.937500000      0.575000048       1.32782722      -1.36126226E-04   1.32782722    
  0.937500000      0.625000000       1.27362335       4.84080403E-04   1.27362347    
  0.937500000      0.675000012       1.19194937       1.54397485E-03   1.19195044    
  0.937500000      0.725000024       1.08256149       2.93800863E-03   1.08256543    
  0.937500000      0.774999976      0.945442319       4.36695945E-03  0.945452392    
  0.937500000      0.825000048      0.780929506       5.38174063E-03  0.780948043    
  0.937500000      0.875000000      0.589761555       5.46611100E-03  0.589786887    
  0.937500000      0.925000012      0.373023093       4.14013304E-03  0.373046070    
  0.937500000      0.975000024      0.132009506       1.53516582E-03  0.132018432    
  0.937500000       1.00000000       0.00000000       0.00000000       0.00000000    
   1.06250000       0.00000000       0.00000000       0.00000000       0.00000000    
   1.06250000       2.50000004E-02  0.129801318      -1.96920685E-03  0.129816249    
   1.06250000       7.50000030E-02  0.366616249      -5.30440267E-03  0.366654605    
   1.06250000      0.125000000      0.579675078      -7.33522419E-03  0.579721451    
   1.06250000      0.175000012      0.767976522      -8.09227303E-03  0.768019199    
   1.06250000      0.224999994      0.930607080      -7.85696320E-03  0.930640280    
   1.06250000      0.275000006       1.06682348      -6.93702511E-03   1.06684601    
   1.06250000      0.324999988       1.17610145      -5.62191755E-03   1.17611492    
   1.06250000      0.375000000       1.25814104      -4.14076913E-03   1.25814784    
   1.06250000      0.425000012       1.31282008      -2.63546943E-03   1.31282270    
   1.06250000      0.475000024       1.34012103      -1.15912047E-03   1.34012151    
   1.06250000      0.524999976       1.34005904       3.01948108E-04   1.34005904    
   1.06250000      0.575000048       1.31263685       1.78569299E-03   1.31263804    
   1.06250000      0.625000000       1.25784469       3.30459396E-03   1.25784898    
   1.06250000      0.675000012       1.17570722       4.80476022E-03   1.17571712    
   1.06250000      0.725000024       1.06635451       6.14249799E-03   1.06637216    
   1.06250000      0.774999976      0.930097044       7.08651263E-03  0.930124044    
   1.06250000      0.825000048      0.767468750       7.34595023E-03  0.767503858    
   1.06250000      0.875000000      0.579225421       6.61217794E-03  0.579263151    
   1.06250000      0.925000012      0.366292655       4.61142696E-03  0.366321683    
   1.06250000      0.975000024      0.129679620       1.63208263E-03  0.129689887    
   1.06250000       1.00000000       0.00000000       0.00000000       0.00000000    
   1.18750000       0.00000000       0.00000000       0.00000000       0.00000000    
   1.18750000       2.50000004E-02  0.127816767      -2.00561667E-03  0.127832502    
   1.18750000       7.50000030E-02  0.360890985      -5.49107417E-03  0.360932738    
   1.18750000      0.125000000      0.570599794      -7.80612230E-03  0.570653200    
   1.18750000      0.175000012      0.756089807      -8.92081857E-03  0.756142437    
   1.18750000      0.224999994      0.916544318      -9.02796909E-03  0.916588783    
   1.18750000      0.275000006       1.05124080      -8.33916292E-03   1.05127382    
   1.18750000      0.324999988       1.15958893      -7.06449058E-03   1.15961051    
   1.18750000      0.375000000       1.24115252      -5.39325457E-03   1.24116421    
   1.18750000      0.425000012       1.29564118      -3.48003302E-03   1.29564583    
   1.18750000      0.475000024       1.32288766      -1.44073553E-03   1.32288837    
   1.18750000      0.524999976       1.32281828       6.38912956E-04   1.32281840    
   1.18750000      0.575000048       1.29543638       2.68343533E-03   1.29543912    
   1.18750000      0.625000000       1.24082100       4.60590329E-03   1.24082959    
   1.18750000      0.675000012       1.15915036       6.28949329E-03   1.15916741    
   1.18750000      0.725000024       1.05072343       7.57914688E-03   1.05075073    
   1.18750000      0.774999976      0.915986300       8.28391593E-03  0.916023731    
   1.18750000      0.825000048      0.755539179       8.19212198E-03  0.755583584    
   1.18750000      0.875000000      0.570116639       7.09319953E-03  0.570160747    
   1.18750000      0.925000012      0.360545397       4.80325473E-03  0.360577375    
   1.18750000      0.975000024      0.127687156       1.67010759E-03  0.127698079    
   1.18750000       1.00000000       0.00000000       0.00000000       0.00000000    
   1.31250000       0.00000000       0.00000000       0.00000000       0.00000000    
   1.31250000       2.50000004E-02  0.125955045      -2.01845821E-03  0.125971213    
   1.31250000       7.50000030E-02  0.355556488      -5.55922138E-03  0.355599970    
   1.31250000      0.125000000      0.562119544      -7.98412971E-03  0.562176228    
   1.31250000      0.175000012      0.744866133      -9.24427807E-03  0.744923472    
   1.31250000      0.224999994      0.903037608      -9.49666649E-03  0.903087497    
   1.31250000      0.275000006       1.03593659      -8.91080871E-03   1.03597486    
   1.31250000      0.324999988       1.14295876      -7.66056404E-03   1.14298439    
   1.31250000      0.375000000       1.22361922      -5.91472536E-03   1.22363353    
   1.31250000      0.425000012       1.27756023      -3.83052975E-03   1.27756596    
   1.31250000      0.475000024       1.30454957      -1.55094778E-03   1.30455053    
   1.31250000      0.524999976       1.30447555       7.93255691E-04   1.30447578    
   1.31250000      0.575000048       1.27734113       3.07576265E-03   1.27734482    
   1.31250000      0.625000000       1.22326612       5.16525563E-03   1.22327697    
   1.31250000      0.675000012       1.14249337       6.91850949E-03   1.14251435    
   1.31250000      0.725000024       1.03539014       8.17738287E-03   1.03542244    
   1.31250000      0.774999976      0.902451634       8.77205655E-03  0.902494252    
   1.31250000      0.825000048      0.744291544       8.52868706E-03  0.744340420    
   1.31250000      0.875000000      0.561618209       7.27816997E-03  0.561665356    
   1.31250000      0.925000012      0.355199814       4.87308949E-03  0.355233252    
   1.31250000      0.975000024      0.125822276       1.68280560E-03  0.125833526    
   1.31250000       1.00000000       0.00000000       0.00000000       0.00000000    
   1.43750000       0.00000000       0.00000000       0.00000000       0.00000000    
   1.43750000       2.50000004E-02  0.124131486      -2.02067150E-03  0.124147929    
   1.43750000       7.50000030E-02  0.350361496      -5.57669438E-03  0.350405872    
   1.43750000      0.125000000      0.553867280      -8.03809427E-03  0.553925574    
   1.43750000      0.175000012      0.733910322      -9.35093127E-03  0.733969867    
   1.43750000      0.224999994      0.889766812      -9.65945236E-03  0.889819205    
   1.43750000      0.275000006       1.02076161      -9.11640655E-03   1.02080226    
   1.43750000      0.324999988       1.12629497      -7.88000505E-03   1.12632251    
   1.43750000      0.375000000       1.20587015      -6.10893359E-03   1.20588565    
   1.43750000      0.425000012       1.25910652      -3.96006415E-03   1.25911272    
   1.43750000      0.475000024       1.28575003      -1.58675411E-03   1.28575099    
   1.43750000      0.524999976       1.28567386       8.61485954E-04   1.28567421    
   1.43750000      0.575000048       1.25888038       3.23624257E-03   1.25888455    
   1.43750000      0.625000000       1.20550537       5.38749620E-03   1.20551741    
   1.43750000      0.675000012       1.12581599       7.16207735E-03   1.12583876    
   1.43750000      0.725000024       1.02020121       8.40255804E-03   1.02023578    
   1.43750000      0.774999976      0.889168262       8.94922577E-03  0.889213324    
   1.43750000      0.825000048      0.733325779       8.64466466E-03  0.733376741    
   1.43750000      0.875000000      0.553359389       7.33759720E-03  0.553408027    
   1.43750000      0.925000012      0.350001335       4.89322655E-03  0.350035548    
   1.43750000      0.975000024      0.123996742       1.68572157E-03  0.124008201    
   1.43750000       1.00000000       0.00000000       0.00000000       0.00000000    
   1.56250000       0.00000000       0.00000000       0.00000000       0.00000000    
   1.56250000       2.50000004E-02  0.122313648      -2.02050270E-03  0.122330338    
   1.56250000       7.50000030E-02  0.345204532      -5.57823945E-03  0.345249593    
   1.56250000      0.125000000      0.545688570      -8.04718770E-03  0.545747876    
   1.56250000      0.175000012      0.723050237      -9.37438011E-03  0.723110974    
   1.56250000      0.224999994      0.876587391      -9.70083661E-03  0.876641035    
   1.56250000      0.275000006       1.00564289      -9.17319022E-03   1.00568473    
   1.56250000      0.324999988       1.10962725      -7.94306584E-03   1.10965562    
   1.56250000      0.375000000       1.18804610      -6.16546907E-03   1.18806207    
   1.56250000      0.425000012       1.24051607      -3.99650401E-03   1.24052250    
   1.56250000      0.475000024       1.26677728      -1.59228104E-03   1.26677823    
   1.56250000      0.524999976       1.26670039       8.90150899E-04   1.26670074    
   1.56250000      0.575000048       1.24028707       3.29434336E-03   1.24029148    
   1.56250000      0.625000000       1.18767738       5.46414964E-03   1.18768990    
   1.56250000      0.675000012       1.10914350       7.24230893E-03   1.10916722    
   1.56250000      0.725000024       1.00507832       8.47249292E-03   1.00511396    
   1.56250000      0.774999976      0.875985861       9.00043547E-03  0.876032114    
   1.56250000      0.825000048      0.722464323       8.67506862E-03  0.722516418    
   1.56250000      0.875000000      0.545180798       7.35085318E-03  0.545230329    
   1.56250000      0.925000012      0.344845355       4.89677675E-03  0.344880134    
   1.56250000      0.975000024      0.122179642       1.68616301E-03  0.122191280    
   1.56250000       1.00000000       0.00000000       0.00000000       0.00000000    
   1.68750000       0.00000000       0.00000000       0.00000000       0.00000000    
   1.68750000       2.50000004E-02  0.120491400      -2.01913272E-03  0.120508321    
   1.68750000       7.50000030E-02  0.340049148      -5.57446666E-03  0.340094835    
   1.68750000      0.125000000      0.537523746      -8.04245099E-03  0.537583888    
   1.68750000      0.175000012      0.712214947      -9.37111489E-03  0.712276578    
   1.68750000      0.224999994      0.863436520      -9.70125571E-03  0.863490999    
   1.68750000      0.275000006      0.990544498      -9.17789526E-03  0.990586996    
   1.68750000      0.324999988       1.09296227      -7.95074832E-03   1.09299111    
   1.68750000      0.375000000       1.17020226      -6.17281953E-03   1.17021859    
   1.68750000      0.425000012       1.22188473      -3.99968587E-03   1.22189128    
   1.68750000      0.475000024       1.24775219      -1.58908614E-03   1.24775314    
   1.68750000      0.524999976       1.24767518       9.00783634E-04   1.24767554    
   1.68750000      0.575000048       1.22165620       3.31116701E-03   1.22166073    
   1.68750000      0.625000000       1.16983438       5.48328646E-03   1.16984725    
   1.68750000      0.675000012       1.09248018       7.25990720E-03   1.09250426    
   1.68750000      0.725000024      0.989982486       8.48537125E-03  0.990018845    
   1.68750000      0.774999976      0.862838089       9.00669582E-03  0.862885058    
   1.68750000      0.825000048      0.711633205       8.67549889E-03  0.711686075    
   1.68750000      0.875000000      0.537020326       7.34835630E-03  0.537070632    
   1.68750000      0.925000012      0.339694142       4.89413831E-03  0.339729398    
   1.68750000      0.975000024      0.120360322       1.68506044E-03  0.120372117    
   1.68750000       1.00000000       0.00000000       0.00000000       0.00000000    
   1.81250000       0.00000000       0.00000000       0.00000000       0.00000000    
   1.81250000       2.50000004E-02  0.118665129      -2.01829476E-03  0.118682295    
   1.81250000       7.50000030E-02  0.334887385      -5.57125360E-03  0.334933728    
   1.81250000      0.125000000      0.529355228      -8.03581066E-03  0.529416203    
   1.81250000      0.175000012      0.701380610      -9.36164148E-03  0.701443076    
   1.81250000      0.224999994      0.850290120      -9.69065912E-03  0.850345373    
   1.81250000      0.275000006      0.975452065      -9.16790403E-03  0.975495160    
   1.81250000      0.324999988       1.07630110      -7.94239156E-03   1.07633042    
   1.81250000      0.375000000       1.15235758      -6.16606325E-03   1.15237403    
   1.81250000      0.425000012       1.20324779      -3.99435963E-03   1.20325446    
   1.81250000      0.475000024       1.22871876      -1.58493163E-03   1.22871971    
   1.81250000      0.524999976       1.22864223       9.03777720E-04   1.22864258    
   1.81250000      0.575000048       1.20302129       3.31263384E-03   1.20302582    
   1.81250000      0.625000000       1.15199304       5.48268203E-03   1.15200615    
   1.81250000      0.675000012       1.07582426       7.25669600E-03   1.07584882    
   1.81250000      0.725000024      0.974896908       8.47946852E-03  0.974933743    
   1.81250000      0.774999976      0.849699497       8.99938866E-03  0.849747121    