 TITLE = "TESTPLOT" 
 VARIABLES="x","y","fx","fy","magf" 
 ZONE T="1", I=          61 , J=          21
   0.00000000       0.00000000       1.00000000       0.00000000       1.00000000    
   0.00000000       2.50000004E-02   1.00000000       0.00000000       1.00000000    
   0.00000000       7.50000030E-02   1.00000000       0.00000000       1.00000000    
   0.00000000      0.125000000       1.00000000       0.00000000       1.00000000    
   0.00000000      0.175000012       1.00000000       0.00000000       1.00000000    
   0.00000000      0.224999994       1.00000000       0.00000000       1.00000000    
   0.00000000      0.275000006       1.00000000       0.00000000       1.00000000    
   0.00000000      0.324999988       1.00000000       0.00000000       1.00000000    
   0.00000000      0.375000000       1.00000000       0.00000000       1.00000000    
   0.00000000      0.425000012       1.00000000       0.00000000       1.00000000    
   0.00000000      0.475000024       1.00000000       0.00000000       1.00000000    
   0.00000000      0.524999976       1.00000000       0.00000000       1.00000000    
   0.00000000      0.575000048       1.00000000       0.00000000       1.00000000    
   0.00000000      0.625000000       1.00000000       0.00000000       1.00000000    
   0.00000000      0.675000012       1.00000000       0.00000000       1.00000000    
   0.00000000      0.725000024       1.00000000       0.00000000       1.00000000    
   0.00000000      0.774999976       1.00000000       0.00000000       1.00000000    
   0.00000000      0.825000048       1.00000000       0.00000000       1.00000000    
   0.00000000      0.875000000       1.00000000       0.00000000       1.00000000    
   0.00000000      0.925000012       1.00000000       0.00000000       1.00000000    
   0.00000000      0.975000024       1.00000000       0.00000000       1.00000000    
   0.00000000       1.00000000       1.00000000       0.00000000       1.00000000    
   8.33333358E-02   0.00000000      0.500000000       0.00000000      0.500000000    
   8.33333358E-02   2.50000004E-02  0.674328208       9.53294635E-02  0.681033194    
   8.33333358E-02   7.50000030E-02  0.870011210      0.227100670      0.899163067    
   8.33333358E-02  0.125000000      0.977141917      0.267847657       1.01318741    
   8.33333358E-02  0.175000012       1.03226852      0.259921640       1.06448936    
   8.33333358E-02  0.224999994       1.05718517      0.227984697       1.08148861    
   8.33333358E-02  0.275000006       1.06531191      0.186135590       1.08145082    
   8.33333358E-02  0.324999988       1.06500614      0.141940325       1.07442319    
   8.33333358E-02  0.375000000       1.06142628       9.89108235E-02   1.06602490    
   8.33333358E-02  0.425000012       1.05765247       5.80874979E-02   1.05924630    
   8.33333358E-02  0.475000024       1.05539107       1.90746710E-02   1.05556345    
   8.33333358E-02  0.524999976       1.05539656      -1.92613266E-02   1.05557227    
   8.33333358E-02  0.575000048       1.05766892      -5.82807884E-02   1.05927336    
   8.33333358E-02  0.625000000       1.06145442      -9.91177410E-02   1.06607211    
   8.33333358E-02  0.675000012       1.06504512     -0.142167404       1.07449186    
   8.33333358E-02  0.725000024       1.06535959     -0.186388522       1.08154142    
   8.33333358E-02  0.774999976       1.05724025     -0.228268385       1.08160222    
   8.33333358E-02  0.825000048       1.03232789     -0.260239065       1.06462443    
   8.33333358E-02  0.875000000      0.977200508     -0.268198311       1.01333666    
   8.33333358E-02  0.925000012      0.870061159     -0.227474272      0.899305820    
   8.33333358E-02  0.975000024      0.674360096      -9.55198035E-02  0.681091487    
   8.33333358E-02   1.00000000      0.500000000       0.00000000      0.500000000    
  0.250000000       0.00000000       0.00000000       0.00000000       0.00000000    
  0.250000000       2.50000004E-02  0.272629976       2.04237513E-02  0.273393899    
  0.250000000       7.50000030E-02  0.632944226       7.04003051E-02  0.636847436    
  0.250000000      0.125000000      0.866785407      0.123634011      0.875558317    
  0.250000000      0.175000012       1.01316237      0.160159498       1.02574313    
  0.250000000      0.224999994       1.09991503      0.174773216       1.11371398    
  0.250000000      0.275000006       1.14738917      0.168945223       1.15976048    
  0.250000000      0.324999988       1.17040956      0.146661624       1.17956269    
  0.250000000      0.375000000       1.17953992      0.112401724       1.18488336    
  0.250000000      0.425000012       1.18196416       7.02633560E-02   1.18405080    
  0.250000000      0.475000024       1.18212354       2.37287935E-02   1.18236172    
  0.250000000      0.524999976       1.18213558      -2.42107976E-02   1.18238342    
  0.250000000      0.575000048       1.18200064      -7.07468241E-02   1.18411601    
  0.250000000      0.625000000       1.17960048     -0.112887472       1.18498981    
  0.250000000      0.675000012       1.17049026     -0.147149265       1.17970347    
  0.250000000      0.725000024       1.14748228     -0.169432640       1.15992367    
  0.250000000      0.774999976       1.10001445     -0.175256148       1.11388803    
  0.250000000      0.825000048       1.01326084     -0.160632133       1.02591431    
  0.250000000      0.875000000      0.866874576     -0.124090180      0.875711083    
  0.250000000      0.925000012      0.633014679      -7.08301514E-02  0.636965096    
  0.250000000      0.975000024      0.272673070      -2.06303820E-02  0.273452401    
  0.250000000       1.00000000       0.00000000       0.00000000       0.00000000    
  0.416666687       0.00000000       0.00000000       0.00000000       0.00000000    
  0.416666687       2.50000004E-02  0.176068753       3.77585599E-03  0.176109239    
  0.416666687       7.50000030E-02  0.480737329       1.85195468E-02  0.481093913    
  0.416666687      0.125000000      0.727920413       4.23285328E-02  0.729150057    
  0.416666687      0.175000012      0.918171525       6.56867474E-02  0.920518160    
  0.416666687      0.224999994       1.05778575       8.19387287E-02   1.06095457    
  0.416666687      0.275000006       1.15553141       8.76935571E-02   1.15885425    
  0.416666687      0.324999988       1.22060525       8.22068900E-02   1.22337043    
  0.416666687      0.375000000       1.26137352       6.65895045E-02   1.26312995    
  0.416666687      0.425000012       1.28460550       4.31170017E-02   1.28532887    
  0.416666687      0.475000024       1.29501820       1.47222457E-02   1.29510188    
  0.416666687      0.524999976       1.29502702      -1.53424507E-02   1.29511786    
  0.416666687      0.575000048       1.28463197      -4.37316298E-02   1.28537607    
  0.416666687      0.625000000       1.26141405      -6.71926364E-02   1.26320243    
  0.416666687      0.675000012       1.22065353      -8.27919394E-02   1.22345805    
  0.416666687      0.725000024       1.15557790      -8.82544890E-02   1.15894318    
  0.416666687      0.774999976       1.05782449      -8.24710876E-02   1.06103444    
  0.416666687      0.825000048      0.918197215      -6.61873743E-02  0.920579672    
  0.416666687      0.875000000      0.727932453      -4.27960344E-02  0.729189336    
  0.416666687      0.925000012      0.480740815      -1.89510174E-02  0.481114209    
  0.416666687      0.975000024      0.176074505      -3.98187619E-03  0.176119521    
  0.416666687       1.00000000       0.00000000       0.00000000       0.00000000    
  0.583333373       0.00000000       0.00000000       0.00000000       0.00000000    
  0.583333373       2.50000004E-02  0.148249865      -1.99007991E-04  0.148249999    
  0.583333373       7.50000030E-02  0.416809618       2.67053093E-03  0.416818172    
  0.583333373      0.125000000      0.651545227       1.06725730E-02  0.651632667    
  0.583333373      0.175000012      0.849171400       2.06530001E-02  0.849422514    
  0.583333373      0.224999994       1.00928676       2.93796770E-02   1.00971425    
  0.583333373      0.275000006       1.13386345       3.44056413E-02   1.13438535    
  0.583333373      0.324999988       1.22639942       3.43858637E-02   1.22688138    
  0.583333373      0.375000000       1.29100323       2.91077923E-02   1.29133129    
  0.583333373      0.425000012       1.33155322       1.93388723E-02   1.33169365    
  0.583333373      0.475000024       1.35102296       6.57933764E-03   1.35103893    
  0.583333373      0.524999976       1.35102010      -7.22362660E-03   1.35103941    
  0.583333373      0.575000048       1.33154368      -1.99740063E-02   1.33169353    
  0.583333373      0.625000000       1.29098403      -2.97255553E-02   1.29132617    
  0.583333373      0.675000012       1.22636628      -3.49790901E-02   1.22686505    
  0.583333373      0.725000024       1.13381290      -3.49691510E-02   1.13435209    
  0.583333373      0.774999976       1.00921893      -2.99098399E-02   1.00966203    
  0.583333373      0.825000048      0.849089861      -2.11480819E-02  0.849353135    
  0.583333373      0.875000000      0.651461005      -1.11339753E-02  0.651556134    
  0.583333373      0.925000012      0.416742563      -3.09754419E-03  0.416754067    
  0.583333373      0.975000024      0.148226231      -5.36479683E-06  0.148226231    
  0.583333373       1.00000000       0.00000000       0.00000000       0.00000000    
  0.750000000       0.00000000       0.00000000       0.00000000       0.00000000    
  0.750000000       2.50000004E-02  0.137748763      -1.41912501E-03  0.137756065    
  0.750000000       7.50000030E-02  0.389094114      -2.73409160E-03  0.389103740    
  0.750000000      0.125000000      0.613568306      -1.30838784E-03  0.613569677    
  0.750000000      0.175000012      0.808965147       1.89197622E-03  0.808967352    
  0.750000000      0.224999994      0.974030972       5.53235179E-03  0.974046648    
  0.750000000      0.275000006       1.10860276       8.39128066E-03   1.10863459    
  0.750000000      0.324999988       1.21347189       9.59814619E-03   1.21350992    
  0.750000000      0.375000000       1.29005408       8.77027307E-03   1.29008389    
  0.750000000      0.425000012       1.33994555       6.03779033E-03   1.33995914    
  0.750000000      0.475000024       1.36449814       1.96851022E-03   1.36449957    
  0.750000000      0.524999976       1.36448121      -2.57803220E-03   1.36448371    
  0.750000000      0.575000048       1.33989358      -6.63984613E-03   1.33991003    
  0.750000000      0.625000000       1.28996754      -9.35709104E-03   1.29000151    
  0.750000000      0.675000012       1.21335173      -1.01628462E-02   1.21339428    
  0.750000000      0.725000024       1.10845232      -8.92908499E-03   1.10848832    
  0.750000000      0.774999976      0.973857880      -6.04069885E-03  0.973876595    
  0.750000000      0.825000048      0.808783650      -2.37086904E-03  0.808787107    
  0.750000000      0.875000000      0.613399744       8.56900238E-04  0.613400340    
  0.750000000      0.925000012      0.388968527       2.31134798E-03  0.388975412    
  0.750000000      0.975000024      0.137702405       1.21558923E-03  0.137707770    
  0.750000000       1.00000000       0.00000000       0.00000000       0.00000000    
  0.916666687       0.00000000       0.00000000       0.00000000       0.00000000    
  0.916666687       2.50000004E-02  0.132686585      -1.83069834E-03  0.132699206    
  0.916666687       7.50000030E-02  0.374892056      -4.64661326E-03  0.374920845    
  0.916666687      0.125000000      0.592474937      -5.76314703E-03  0.592502952    
  0.916666687      0.175000012      0.784050584      -5.43501042E-03  0.784069419    
  0.916666687      0.224999994      0.948530734      -4.22241027E-03  0.948540092    
  0.916666687      0.275000006       1.08525705      -2.69772322E-03   1.08526039    
  0.916666687      0.324999988       1.19403195      -1.33844989E-03   1.19403267    
  0.916666687      0.375000000       1.27503872      -4.43186436E-04   1.27503884    
  0.916666687      0.425000012       1.32867289      -9.29380403E-05   1.32867289    
  0.916666687      0.475000024       1.35534680      -1.64776444E-04   1.35534680    
  0.916666687      0.524999976       1.35531747      -3.92406131E-04   1.35531747    
  0.916666687      0.575000048       1.32858491      -4.58050810E-04   1.32858503    
  0.916666687      0.625000000       1.27489567      -9.57150405E-05   1.27489567    
  0.916666687      0.675000012       1.19383979       8.16198240E-04   1.19384003    
  0.916666687      0.725000024       1.08502555       2.19497411E-03   1.08502769    
  0.916666687      0.774999976      0.948274970       3.74058727E-03  0.948282361    
  0.916666687      0.825000048      0.783792436       4.97435406E-03  0.783808231    
  0.916666687      0.875000000      0.592243135       5.32244472E-03  0.592267096    
  0.916666687      0.925000012      0.374723732       4.22852207E-03  0.374747574    
  0.916666687      0.975000024      0.132623494       1.62821589E-03  0.132633492    
  0.916666687       1.00000000       0.00000000       0.00000000       0.00000000    
   1.08333337       0.00000000       0.00000000       0.00000000       0.00000000    
   1.08333337       2.50000004E-02  0.129449770      -1.96652277E-03  0.129464701    
   1.08333337       7.50000030E-02  0.365598828      -5.30145131E-03  0.365637273    
   1.08333337      0.125000000      0.578027308      -7.34185427E-03  0.578073919    
   1.08333337      0.175000012      0.765742064      -8.11676588E-03  0.765785098    
   1.08333337      0.224999994      0.927843750      -7.90176447E-03  0.927877426    
   1.08333337      0.275000006       1.06360471      -6.99453615E-03   1.06362772    
   1.08333337      0.324999988       1.17251706      -5.67295495E-03   1.17253077    
   1.08333337      0.375000000       1.25428903      -4.15759720E-03   1.25429595    
   1.08333337      0.425000012       1.30879974      -2.58958503E-03   1.30880225    
   1.08333337      0.475000024       1.33602965      -1.02927838E-03   1.33603001    
   1.08333337      0.524999976       1.33599138       5.22767659E-04   1.33599150    
   1.08333337      0.575000048       1.30868602       2.08743359E-03   1.30868769    
   1.08333337      0.625000000       1.25410581       3.66297876E-03   1.25411117    
   1.08333337      0.675000012       1.17227459       5.18868770E-03   1.17228615    
   1.08333337      0.725000024       1.06331778       6.52297447E-03   1.06333780    
   1.08333337      0.774999976      0.927532196       7.44389091E-03  0.927562058    
   1.08333337      0.825000048      0.765432835       7.67230149E-03  0.765471280    
   1.08333337      0.875000000      0.577754021       6.91032968E-03  0.577795327    
   1.08333337      0.925000012      0.365402520       4.88740439E-03  0.365435213    
   1.08333337      0.975000024      0.129375756       1.76503172E-03  0.129387796    
   1.08333337       1.00000000       0.00000000       0.00000000       0.00000000    
   1.25000000       0.00000000       0.00000000       0.00000000       0.00000000    
   1.25000000       2.50000004E-02  0.126801401      -2.00691842E-03  0.126817271    
   1.25000000       7.50000030E-02  0.357995361      -5.50585054E-03  0.358037710    
   1.25000000      0.125000000      0.565997124      -7.85451289E-03  0.566051602    
   1.25000000      0.175000012      0.749982595      -9.01639089E-03  0.750036776    
   1.25000000      0.224999994      0.909162104      -9.17010102E-03  0.909208357    
   1.25000000      0.275000006       1.04282713      -8.50959122E-03   1.04286182    
   1.25000000      0.324999988       1.15038991      -7.22908229E-03   1.15041256    
   1.25000000      0.375000000       1.23140085      -5.50854206E-03   1.23141313    
   1.25000000      0.425000012       1.28554773      -3.50308605E-03   1.28555250    
   1.25000000      0.475000024       1.31264234      -1.34011800E-03   1.31264305    
   1.25000000      0.524999976       1.31259871       8.73228069E-04   1.31259894    
   1.25000000      0.575000048       1.28541875       3.03814420E-03   1.28542233    
   1.25000000      0.625000000       1.23119354       5.04817534E-03   1.23120391    
   1.25000000      0.675000012       1.15011716       6.77495264E-03   1.15013719    
   1.25000000      0.725000024       1.04250705       8.06254894E-03   1.04253817    
   1.25000000      0.774999976      0.908818007       8.73041153E-03  0.908859909    
   1.25000000      0.825000048      0.749644279       8.58404115E-03  0.749693394    
   1.25000000      0.875000000      0.565701246       7.42995366E-03  0.565750003    
   1.25000000      0.925000012      0.357784301       5.09477593E-03  0.357820570    
   1.25000000      0.975000024      0.126722008       1.80610036E-03  0.126734883    
   1.25000000       1.00000000       0.00000000       0.00000000       0.00000000    
   1.41666675       0.00000000       0.00000000       0.00000000       0.00000000    
   1.41666675       2.50000004E-02  0.124319077      -2.01679650E-03  0.124335431    
   1.41666675       7.50000030E-02  0.350918442      -5.56006609E-03  0.350962490    
   1.41666675      0.125000000      0.554766893      -7.99873471E-03  0.554824591    
   1.41666675      0.175000012      0.735112786      -9.28089675E-03  0.735171378    
   1.41666675      0.224999994      0.891224027      -9.55605321E-03  0.891275287    
   1.41666675      0.275000006       1.02241993      -8.98296107E-03   1.02245939    
   1.41666675      0.324999988       1.12810397      -7.72488303E-03   1.12813044    
   1.41666675      0.375000000       1.20778584      -5.94403036E-03   1.20780051    
   1.41666675      0.425000012       1.26109385      -3.79762170E-03   1.26109958    
   1.41666675      0.475000024       1.28778505      -1.43590244E-03   1.28778589    
   1.41666675      0.524999976       1.28773856       9.97285941E-04   1.28773892    
   1.41666675      0.575000048       1.26095700       3.36021464E-03   1.26096153    
   1.41666675      0.625000000       1.20756626       5.50842378E-03   1.20757890    
   1.41666675      0.675000012       1.12781644       7.29168393E-03   1.12784004    
   1.41666675      0.725000024       1.02208388       8.55260156E-03   1.02211964    
   1.41666675      0.774999976      0.890864849       9.12860408E-03  0.890911639    
   1.41666675      0.825000048      0.734761775       8.85665603E-03  0.734815121    
   1.41666675      0.875000000      0.554461658       7.57858902E-03  0.554513454    
   1.41666675      0.925000012      0.350702077       5.15045598E-03  0.350739896    
   1.41666675      0.975000024      0.124238260       1.81609963E-03  0.124251530    
   1.41666675       1.00000000       0.00000000       0.00000000       0.00000000    
   1.58333349       0.00000000       0.00000000       0.00000000       0.00000000    
   1.58333349       2.50000004E-02  0.121871173      -2.01768568E-03  0.121887870    
   1.58333349       7.50000030E-02  0.343978077      -5.56876231E-03  0.344023138    
   1.58333349      0.125000000      0.543765783      -8.02752934E-03  0.543825030    
   1.58333349      0.175000012      0.720516801      -9.34040919E-03  0.720577359    
   1.58333349      0.224999994      0.873530865      -9.64999199E-03  0.873584151    
   1.58333349      0.275000006       1.00215006      -9.10433754E-03   1.00219142    
   1.58333349      0.324999988       1.10578787      -7.85644259E-03   1.10581577    
   1.58333349      0.375000000       1.18395209      -6.06185012E-03   1.18396759    
   1.58333349      0.425000012       1.23626065      -3.87716386E-03   1.23626673    
   1.58333349      0.475000024       1.26245570      -1.45876221E-03   1.26245654    
   1.58333349      0.524999976       1.26240814       1.03736983E-03   1.26240861    
   1.58333349      0.575000048       1.23612070       3.45591735E-03   1.23612547    
   1.58333349      0.625000000       1.18372893       5.64104877E-03   1.18374240    
   1.58333349      0.675000012       1.10549676       7.43593462E-03   1.10552180    
   1.58333349      0.725000024       1.00181031       8.68427195E-03   1.00184798    
   1.58333349      0.774999976      0.873169005       9.23055317E-03  0.873217762    
   1.58333349      0.825000048      0.720164418       8.92174244E-03  0.720219672    
   1.58333349      0.875000000      0.543460310       7.61037786E-03  0.543513596    
   1.58333349      0.925000012      0.343762457       5.16040018E-03  0.343801200    
   1.58333349      0.975000024      0.121791154       1.81735854E-03  0.121804714    
   1.58333349       1.00000000       0.00000000       0.00000000       0.00000000    
   1.75000000       0.00000000       0.00000000       0.00000000       0.00000000    
   1.75000000       2.50000004E-02  0.119424418      -2.01684120E-03  0.119441450    
   1.75000000       7.50000030E-02  0.337059706      -5.56679070E-03  0.337105662    
   1.75000000      0.125000000      0.532813489      -8.02692864E-03  0.532873929    
   1.75000000      0.175000012      0.705988646      -9.34453309E-03  0.706050515    
   1.75000000      0.224999994      0.855905414      -9.66088381E-03  0.855959952    
   1.75000000      0.275000006      0.981924057      -9.12183523E-03  0.981966436    
   1.75000000      0.324999988       1.08347225      -7.87757616E-03   1.08350098    
   1.75000000      0.375000000       1.16006613      -6.08153315E-03   1.16008210    
   1.75000000      0.425000012       1.21132779      -3.88976606E-03   1.21133399    
   1.75000000      0.475000024       1.23699903      -1.46014162E-03   1.23699987    
   1.75000000      0.524999976       1.23695171       1.04884803E-03   1.23695219    
   1.75000000      0.575000048       1.21118832       3.47820786E-03   1.21119332    
   1.75000000      0.625000000       1.15984452       5.66911697E-03   1.15985835    
   1.75000000      0.675000012       1.08318353       7.46423565E-03   1.08320928    
   1.75000000      0.725000024      0.981587946       8.70749820E-03  0.981626570    
   1.75000000      0.774999976      0.855548143       9.24527273E-03  0.855598092    
   1.75000000      0.825000048      0.705641389       8.92814156E-03  0.705697894    
   1.75000000      0.875000000      0.532513022       7.61149265E-03  0.532567382    
   1.75000000      0.925000012      0.336848229       5.15957363E-03  0.336887747    
   1.75000000      0.975000024      0.119346127       1.81680662E-03  0.119359955    
   1.75000000       1.00000000       0.00000000       0.00000000       0.00000000    
   1.91666675       0.00000000       0.00000000       0.00000000       0.00000000    
   1.91666675       2.50000004E-02  0.116973504      -2.01632269E-03  0.116990879    
   1.91666675       7.50000030E-02  0.330136955      -5.56426495E-03  0.330183834    
   1.91666675      0.125000000      0.521862864      -8.02153163E-03  0.521924496    
   1.91666675      0.175000012      0.691469908      -9.33700986E-03  0.691532969    
   1.91666675      0.224999994      0.838294089      -9.65290144E-03  0.838349640    
   1.91666675      0.275000006      0.961711586      -9.11476556E-03  0.961754799    
   1.91666675      0.324999988       1.06116343      -7.87183922E-03   1.06119263    
   1.91666675      0.375000000       1.13617671      -6.07735012E-03   1.13619292    
   1.91666675      0.425000012       1.18637991      -3.88674135E-03   1.18638635    
   1.91666675      0.475000024       1.21152210      -1.45752192E-03   1.21152306    
   1.91666675      0.524999976       1.21147537       1.05084223E-03   1.21147585    
   1.91666675      0.575000048       1.18624330       3.47918342E-03   1.18624842    
   1.91666675      0.625000000       1.13595867       5.66888275E-03   1.13597286    
   1.91666675      0.675000012       1.06087983       7.46186869E-03   1.06090605    
   1.91666675      0.725000024      0.961381912       8.70266929E-03  0.961421311    
   1.91666675      0.774999976      0.837943971       9.23903473E-03  0.837994933    
   1.91666675      0.825000048      0.691129863       8.92199762E-03  0.691187441    
   1.91666675      0.875000000      0.521569133       7.60655943E-03  0.521624565    
   1.91666675      0.925000012      0.329930276       5.15677873E-03  0.329970568    
   1.91666675      0.975000024      0.116896868       1.81610091E-03  0.116910972    
   1.91666675       1.00000000       0.00000000       0.00000000       0.00000000    
   2.08333349       0.00000000       0.00000000       0.00000000       0.00000000    
   2.08333349       2.50000004E-02  0.114518300      -2.01599696E-03  0.114536047    
   2.08333349       7.50000030E-02  0.323206723      -5.56292478E-03  0.323254585    
   2.08333349      0.125000000      0.510905206      -8.01865477E-03  0.510968149    
   2.08333349      0.175000012      0.676946640      -9.33248457E-03  0.677010953    
   2.08333349      0.224999994      0.820682108      -9.64690000E-03  0.820738792    
   2.08333349      0.275000006      0.941501856      -9.10805725E-03  0.941545904    
   2.08333349      0.324999988       1.03885913      -7.86551833E-03   1.03888893    
   2.08333349      0.375000000       1.11229169      -6.07206486E-03   1.11230826    
   2.08333349      0.425000012       1.16143703      -3.88319138E-03   1.16144347    
   2.08333349      0.475000024       1.18604946      -1.45619619E-03   1.18605042    
   2.08333349      0.524999976       1.18600392       1.05033000E-03   1.18600440    
   2.08333349      0.575000048       1.16130400       3.47698783E-03   1.16130912    
   2.08333349      0.625000000       1.11207938       5.66476397E-03   1.11209381    
   2.08333349      0.675000012       1.03858256       7.45648611E-03   1.03860927    
   2.08333349      0.725000024      0.941180468       8.69686902E-03  0.941220641    
   2.08333349      0.774999976      0.820341051       9.23328567E-03  0.820393026    
   2.08333349      0.825000048      0.676615715       8.91696475E-03  0.676674485    
   2.08333349      0.875000000      0.510619521       7.60317873E-03  0.510676146    
   2.08333349      0.925000012      0.323005915       5.15519455E-03  0.323047042    
   2.08333349      0.975000024      0.114444137       1.81564980E-03  0.114458539    
   2.08333349       1.00000000       0.00000000       0.00000000       0.00000000    
   2.25000000       0.00000000       0.00000000       0.00000000       0.00000000    
   2.25000000       2.50000004E-02  0.112060875      -2.01551476E-03  0.112079002    
   2.25000000       7.50000030E-02  0.316271842      -5.56146353E-03  0.316320717    
   2.25000000      0.125000000      0.499942124      -8.01593065E-03  0.500006378    
   2.25000000      0.175000012      0.662418604      -9.32861678E-03  0.662484288    
   2.25000000      0.224999994      0.803067088      -9.64244921E-03  0.803125024    
   2.25000000      0.275000006      0.921291232      -9.10343416E-03  0.921336174    
   2.25000000      0.324999988       1.01655602      -7.86126871E-03   1.01658642    
   2.25000000      0.375000000       1.08840966      -6.06856728E-03   1.08842659    
   2.25000000      0.425000012       1.13649881      -3.88071663E-03   1.13650537    
   2.25000000      0.475000024       1.16058207      -1.45515893E-03   1.16058302    
   2.25000000      0.524999976       1.16053784       1.04954338E-03   1.16053832    
   2.25000000      0.575000048       1.13636947       3.47438268E-03   1.13637483    
   2.25000000      0.625000000       1.08820343       5.66087803E-03   1.08821821    
   2.25000000      0.675000012       1.01628709       7.45181739E-03   1.01631439    
   2.25000000      0.725000024      0.920978785       8.69185477E-03  0.921019793    
   2.25000000      0.774999976      0.802735806       9.22876783E-03  0.802788854    
   2.25000000      0.825000048      0.662097216       8.91345553E-03  0.662157238    
   2.25000000      0.875000000      0.499664664       7.60057848E-03  0.499722481    
   2.25000000      0.925000012      0.316076994       5.15378127E-03  0.316119015    
   2.25000000      0.975000024      0.111989051       1.81532616E-03  0.112003759    
   2.25000000       1.00000000       0.00000000       0.00000000       0.00000000    
   2.41666698       0.00000000       0.00000000       0.00000000       0.00000000    
   2.41666698       2.50000004E-02  0.109603152      -2.01563328E-03  0.109621681    
   2.41666698       7.50000030E-02  0.309335291      -5.56144956E-03  0.309385270    
   2.41666698      0.125000000      0.488977134      -8.01560283E-03  0.489042819    
   2.41666698      0.175000012      0.647889018      -9.32792574E-03  0.647956192    
   2.41666698      0.224999994      0.785451293      -9.64154396E-03  0.785510480    
   2.41666698      0.275000006      0.901080549      -9.10255499E-03  0.901126504    
   2.41666698      0.324999988      0.994254351      -7.86031969E-03  0.994285464    
   2.41666698      0.375000000       1.06453061      -6.06790930E-03   1.06454790    
   2.41666698      0.425000012       1.11156368      -3.88053432E-03   1.11157036    
   2.41666698      0.475000024       1.13511837      -1.45538279E-03   1.13511932    
   2.41666698      0.524999976       1.13507533       1.04878633E-03   1.13507581    
   2.41666698      0.575000048       1.11143756       3.47327814E-03   1.11144292    
   2.41666698      0.625000000       1.06432927       5.65970782E-03   1.06434429    
   2.41666698      0.675000012      0.993992388       7.45043717E-03  0.994020343    
   2.41666698      0.725000024      0.900776505       8.69036652E-03  0.900818408    
   2.41666698      0.774999976      0.785128713       9.22742113E-03  0.785182953    