 TITLE = "TESTPLOT" 
 VARIABLES="x","y","fx","fy","magf" 
 ZONE T="1", I=          61 , J=          21
   0.00000000       0.00000000       1.00000000       0.00000000       1.00000000    
   0.00000000       2.50000004E-02   1.00000000       0.00000000       1.00000000    
   0.00000000       7.50000030E-02   1.00000000       0.00000000       1.00000000    
   0.00000000      0.125000000       1.00000000       0.00000000       1.00000000    
   0.00000000      0.175000012       1.00000000       0.00000000       1.00000000    
   0.00000000      0.224999994       1.00000000       0.00000000       1.00000000    
   0.00000000      0.275000006       1.00000000       0.00000000       1.00000000    
   0.00000000      0.324999988       1.00000000       0.00000000       1.00000000    
   0.00000000      0.375000000       1.00000000       0.00000000       1.00000000    
   0.00000000      0.425000012       1.00000000       0.00000000       1.00000000    
   0.00000000      0.475000024       1.00000000       0.00000000       1.00000000    
   0.00000000      0.524999976       1.00000000       0.00000000       1.00000000    
   0.00000000      0.575000048       1.00000000       0.00000000       1.00000000    
   0.00000000      0.625000000       1.00000000       0.00000000       1.00000000    
   0.00000000      0.675000012       1.00000000       0.00000000       1.00000000    
   0.00000000      0.725000024       1.00000000       0.00000000       1.00000000    
   0.00000000      0.774999976       1.00000000       0.00000000       1.00000000    
   0.00000000      0.825000048       1.00000000       0.00000000       1.00000000    
   0.00000000      0.875000000       1.00000000       0.00000000       1.00000000    
   0.00000000      0.925000012       1.00000000       0.00000000       1.00000000    
   0.00000000      0.975000024       1.00000000       0.00000000       1.00000000    
   0.00000000       1.00000000       1.00000000       0.00000000       1.00000000    
   8.33333358E-02   0.00000000      0.500000000       0.00000000      0.500000000    
   8.33333358E-02   2.50000004E-02  0.674327254       9.53292847E-02  0.681032240    
   8.33333358E-02   7.50000030E-02  0.870009661      0.227100253      0.899161458    
   8.33333358E-02  0.125000000      0.977139950      0.267847240       1.01318538    
   8.33333358E-02  0.175000012       1.03226697      0.259921163       1.06448770    
   8.33333358E-02  0.224999994       1.05718350      0.227984071       1.08148670    
   8.33333358E-02  0.275000006       1.06531000      0.186134875       1.08144879    
   8.33333358E-02  0.324999988       1.06500387      0.141939625       1.07442081    
   8.33333358E-02  0.375000000       1.06142414       9.89101678E-02   1.06602275    
   8.33333358E-02  0.425000012       1.05765057       5.80867976E-02   1.05924439    
   8.33333358E-02  0.475000024       1.05538940       1.90737844E-02   1.05556178    
   8.33333358E-02  0.524999976       1.05539477      -1.92624703E-02   1.05557060    
   8.33333358E-02  0.575000048       1.05766714      -5.82817420E-02   1.05927169    
   8.33333358E-02  0.625000000       1.06145263      -9.91183072E-02   1.06607044    
   8.33333358E-02  0.675000012       1.06504357     -0.142167956       1.07449031    
   8.33333358E-02  0.725000024       1.06535792     -0.186389238       1.08153987    
   8.33333358E-02  0.774999976       1.05723846     -0.228268832       1.08160055    
   8.33333358E-02  0.825000048       1.03232610     -0.260239065       1.06462276    
   8.33333358E-02  0.875000000      0.977198362     -0.268198013       1.01333451    
   8.33333358E-02  0.925000012      0.870059371     -0.227473885      0.899303973    
   8.33333358E-02  0.975000024      0.674359202      -9.55196247E-02  0.681090534    
   8.33333358E-02   1.00000000      0.500000000       0.00000000      0.500000000    
  0.250000000       0.00000000       0.00000000       0.00000000       0.00000000    
  0.250000000       2.50000004E-02  0.272626877       2.04236843E-02  0.273390830    
  0.250000000       7.50000030E-02  0.632938802       7.04000965E-02  0.636841953    
  0.250000000      0.125000000      0.866779268      0.123633459      0.875552118    
  0.250000000      0.175000012       1.01315713      0.160158694       1.02573788    
  0.250000000      0.224999994       1.09991014      0.174772441       1.11370897    
  0.250000000      0.275000006       1.14738393      0.168944508       1.15975523    
  0.250000000      0.324999988       1.17040420      0.146660835       1.17955732    
  0.250000000      0.375000000       1.17953444      0.112400860       1.18487787    
  0.250000000      0.425000012       1.18195868       7.02626109E-02   1.18404520    
  0.250000000      0.475000024       1.18211854       2.37282943E-02   1.18235660    
  0.250000000      0.524999976       1.18213081      -2.42111646E-02   1.18237877    
  0.250000000      0.575000048       1.18199563      -7.07471073E-02   1.18411100    
  0.250000000      0.625000000       1.17959499     -0.112887830       1.18498445    
  0.250000000      0.675000012       1.17048490     -0.147149667       1.17969823    
  0.250000000      0.725000024       1.14747739     -0.169432908       1.15991890    
  0.250000000      0.774999976       1.10000932     -0.175256327       1.11388302    
  0.250000000      0.825000048       1.01325572     -0.160632193       1.02590930    
  0.250000000      0.875000000      0.866869092     -0.124090143      0.875705659    
  0.250000000      0.925000012      0.633009791      -7.08300024E-02  0.636960208    
  0.250000000      0.975000024      0.272670716      -2.06302535E-02  0.273450047    
  0.250000000       1.00000000       0.00000000       0.00000000       0.00000000    
  0.416666687       0.00000000       0.00000000       0.00000000       0.00000000    
  0.416666687       2.50000004E-02  0.176063225       3.77595308E-03  0.176103711    
  0.416666687       7.50000030E-02  0.480727524       1.85196307E-02  0.481084108    
  0.416666687      0.125000000      0.727910161       4.23285663E-02  0.729139864    
  0.416666687      0.175000012      0.918161750       6.56867027E-02  0.920508385    
  0.416666687      0.224999994       1.05777633       8.19384828E-02   1.06094515    
  0.416666687      0.275000006       1.15552258       8.76929536E-02   1.15884531    
  0.416666687      0.324999988       1.22059643       8.22061598E-02   1.22336161    
  0.416666687      0.375000000       1.26136470       6.65887520E-02   1.26312113    
  0.416666687      0.425000012       1.28459644       4.31161486E-02   1.28531981    
  0.416666687      0.475000024       1.29500949       1.47217344E-02   1.29509318    
  0.416666687      0.524999976       1.29501820      -1.53425578E-02   1.29510915    
  0.416666687      0.575000048       1.28462267      -4.37313020E-02   1.28536689    
  0.416666687      0.625000000       1.26140451      -6.71922192E-02   1.26319289    
  0.416666687      0.675000012       1.22064400      -8.27917159E-02   1.22344851    
  0.416666687      0.725000024       1.15556931      -8.82541165E-02   1.15893459    
  0.416666687      0.774999976       1.05781555      -8.24702382E-02   1.06102550    
  0.416666687      0.825000048      0.918188274      -6.61862493E-02  0.920570672    
  0.416666687      0.875000000      0.727923095      -4.27950695E-02  0.729179978    
  0.416666687      0.925000012      0.480731875      -1.89503673E-02  0.481105238    
  0.416666687      0.975000024      0.176069707      -3.98164662E-03  0.176114723    
  0.416666687       1.00000000       0.00000000       0.00000000       0.00000000    
  0.583333373       0.00000000       0.00000000       0.00000000       0.00000000    
  0.583333373       2.50000004E-02  0.148241982      -1.99535585E-04  0.148242116    
  0.583333373       7.50000030E-02  0.416795969       2.66949111E-03  0.416804522    
  0.583333373      0.125000000      0.651531100       1.06717329E-02  0.651618481    
  0.583333373      0.175000012      0.849157751       2.06525773E-02  0.849408865    
  0.583333373      0.224999994       1.00927317       2.93795839E-02   1.00970066    
  0.583333373      0.275000006       1.13385069       3.44055146E-02   1.13437259    
  0.583333373      0.324999988       1.22638679       3.43855470E-02   1.22686875    
  0.583333373      0.375000000       1.29099083       2.91072000E-02   1.29131889    
  0.583333373      0.425000012       1.33153999       1.93382632E-02   1.33168042    
  0.583333373      0.475000024       1.35100996       6.57917326E-03   1.35102594    
  0.583333373      0.524999976       1.35100639      -7.22361263E-03   1.35102570    
  0.583333373      0.575000048       1.33152938      -1.99739151E-02   1.33167922    
  0.583333373      0.625000000       1.29097033      -2.97254175E-02   1.29131246    
  0.583333373      0.675000012       1.22635293      -3.49789485E-02   1.22685170    
  0.583333373      0.725000024       1.13379955      -3.49685550E-02   1.13433874    
  0.583333373      0.774999976       1.00920582      -2.99087875E-02   1.00964892    
  0.583333373      0.825000048      0.849076629      -2.11470444E-02  0.849339962    
  0.583333373      0.875000000      0.651446998      -1.11333756E-02  0.651542127    
  0.583333373      0.925000012      0.416729033      -3.09726526E-03  0.416740537    
  0.583333373      0.975000024      0.148218155      -5.23521157E-06  0.148218155    
  0.583333373       1.00000000       0.00000000       0.00000000       0.00000000    
  0.750000000       0.00000000       0.00000000       0.00000000       0.00000000    
  0.750000000       2.50000004E-02  0.137737945      -1.41956680E-03  0.137745261    
  0.750000000       7.50000030E-02  0.389076263      -2.73498986E-03  0.389085889    
  0.750000000      0.125000000      0.613549948      -1.30908797E-03  0.613551378    
  0.750000000      0.175000012      0.808947384       1.89139321E-03  0.808949590    
  0.750000000      0.224999994      0.974013805       5.53184841E-03  0.974029481    
  0.750000000      0.275000006       1.10858560       8.39098543E-03   1.10861742    
  0.750000000      0.324999988       1.21345520       9.59822163E-03   1.21349311    
  0.750000000      0.375000000       1.29003716       8.77079554E-03   1.29006696    
  0.750000000      0.425000012       1.33992791       6.03818335E-03   1.33994150    
  0.750000000      0.475000024       1.36448050       1.96854887E-03   1.36448193    
  0.750000000      0.524999976       1.36446309      -2.57804454E-03   1.36446559    
  0.750000000      0.575000048       1.33987522      -6.63966592E-03   1.33989167    
  0.750000000      0.625000000       1.28994930      -9.35683772E-03   1.28998315    
  0.750000000      0.675000012       1.21333408      -1.01625919E-02   1.21337664    
  0.750000000      0.725000024       1.10843492      -8.92903842E-03   1.10847092    
  0.750000000      0.774999976      0.973841190      -6.04087487E-03  0.973859906    
  0.750000000      0.825000048      0.808766484      -2.37087347E-03  0.808769941    
  0.750000000      0.875000000      0.613381565       8.56894418E-04  0.613382161    
  0.750000000      0.925000012      0.388950884       2.31131678E-03  0.388957769    
  0.750000000      0.975000024      0.137691528       1.21562730E-03  0.137696892    
  0.750000000       1.00000000       0.00000000       0.00000000       0.00000000    
  0.916666687       0.00000000       0.00000000       0.00000000       0.00000000    
  0.916666687       2.50000004E-02  0.132673278      -1.83100451E-03  0.132685915    
  0.916666687       7.50000030E-02  0.374870360      -4.64726146E-03  0.374899149    
  0.916666687      0.125000000      0.592452407      -5.76380733E-03  0.592480481    
  0.916666687      0.175000012      0.784028649      -5.43557294E-03  0.784047484    
  0.916666687      0.224999994      0.948509336      -4.22281353E-03  0.948518693    
  0.916666687      0.275000006       1.08523583      -2.69807572E-03   1.08523917    
  0.916666687      0.324999988       1.19401050      -1.33870565E-03   1.19401121    
  0.916666687      0.375000000       1.27501690      -4.43190453E-04   1.27501702    
  0.916666687      0.425000012       1.32865119      -9.27089786E-05   1.32865119    
  0.916666687      0.475000024       1.35532522      -1.64530124E-04   1.35532522    
  0.916666687      0.524999976       1.35529613      -3.92353424E-04   1.35529613    
  0.916666687      0.575000048       1.32856345      -4.58140508E-04   1.32856357    
  0.916666687      0.625000000       1.27487397      -9.59225945E-05   1.27487397    
  0.916666687      0.675000012       1.19381845       8.16007727E-04   1.19381881    
  0.916666687      0.725000024       1.08500481       2.19495618E-03   1.08500707    
  0.916666687      0.774999976      0.948254228       3.74053791E-03  0.948261619    
  0.916666687      0.825000048      0.783771217       4.97429259E-03  0.783787012    
  0.916666687      0.875000000      0.592221022       5.32261748E-03  0.592244923    
  0.916666687      0.925000012      0.374702632       4.22890112E-03  0.374726504    
  0.916666687      0.975000024      0.132610932       1.62844104E-03  0.132620931    
  0.916666687       1.00000000       0.00000000       0.00000000       0.00000000    
   1.08333337       0.00000000       0.00000000       0.00000000       0.00000000    
   1.08333337       2.50000004E-02  0.129434824      -1.96667062E-03  0.129449770    
   1.08333337       7.50000030E-02  0.365573913      -5.30175632E-03  0.365612358    
   1.08333337      0.125000000      0.578001201      -7.34213460E-03  0.578047812    
   1.08333337      0.175000012      0.765716255      -8.11695866E-03  0.765759230    
   1.08333337      0.224999994      0.927818656      -7.90188648E-03  0.927852333    
   1.08333337      0.275000006       1.06358039      -6.99466141E-03   1.06360340    
   1.08333337      0.324999988       1.17249238      -5.67316404E-03   1.17250609    
   1.08333337      0.375000000       1.25426388      -4.15790174E-03   1.25427079    
   1.08333337      0.425000012       1.30877519      -2.58996105E-03   1.30877781    
   1.08333337      0.475000024       1.33600557      -1.02966302E-03   1.33600593    
   1.08333337      0.524999976       1.33596754       5.22481452E-04   1.33596766    
   1.08333337      0.575000048       1.30866218       2.08726292E-03   1.30866385    
   1.08333337      0.625000000       1.25408149       3.66294989E-03   1.25408685    
   1.08333337      0.675000012       1.17225051       5.18876873E-03   1.17226195    
   1.08333337      0.725000024       1.06329393       6.52314629E-03   1.06331396    
   1.08333337      0.774999976      0.927507877       7.44419592E-03  0.927537739    
   1.08333337      0.825000048      0.765407979       7.67281419E-03  0.765446484    
   1.08333337      0.875000000      0.577728510       6.91077951E-03  0.577769876    
   1.08333337      0.925000012      0.365378678       4.88762464E-03  0.365411371    
   1.08333337      0.975000024      0.129362017       1.76513428E-03  0.129374057    
   1.08333337       1.00000000       0.00000000       0.00000000       0.00000000    
   1.25000000       0.00000000       0.00000000       0.00000000       0.00000000    
   1.25000000       2.50000004E-02  0.126784623      -2.00719619E-03  0.126800507    
   1.25000000       7.50000030E-02  0.357967496      -5.50654344E-03  0.358009845    
   1.25000000      0.125000000      0.565968096      -7.85517599E-03  0.566022575    
   1.25000000      0.175000012      0.749954224      -9.01667215E-03  0.750008404    
   1.25000000      0.224999994      0.909134746      -9.17022303E-03  0.909180999    
   1.25000000      0.275000006       1.04280066      -8.50955956E-03   1.04283535    
   1.25000000      0.324999988       1.15036321      -7.22887646E-03   1.15038586    
   1.25000000      0.375000000       1.23137343      -5.50838467E-03   1.23138583    
   1.25000000      0.425000012       1.28552079      -3.50298011E-03   1.28552556    
   1.25000000      0.475000024       1.31261587      -1.34008448E-03   1.31261659    
   1.25000000      0.524999976       1.31257212       8.73257290E-04   1.31257236    
   1.25000000      0.575000048       1.28539181       3.03836586E-03   1.28539538    
   1.25000000      0.625000000       1.23116648       5.04859816E-03   1.23117685    
   1.25000000      0.675000012       1.15009058       6.77544251E-03   1.15011060    
   1.25000000      0.725000024       1.04248035       8.06310307E-03   1.04251146    
   1.25000000      0.774999976      0.908790946       8.73103365E-03  0.908832908    
   1.25000000      0.825000048      0.749616623       8.58468004E-03  0.749665737    
   1.25000000      0.875000000      0.565672398       7.43065774E-03  0.565721214    
   1.25000000      0.925000012      0.357757032       5.09531144E-03  0.357793301    
   1.25000000      0.975000024      0.126705527       1.80624262E-03  0.126718402    
   1.25000000       1.00000000       0.00000000       0.00000000       0.00000000    
   1.41666675       0.00000000       0.00000000       0.00000000       0.00000000    
   1.41666675       2.50000004E-02  0.124301374      -2.01669475E-03  0.124317735    
   1.41666675       7.50000030E-02  0.350888342      -5.55988960E-03  0.350932389    
   1.41666675      0.125000000      0.554735303      -7.99862109E-03  0.554793000    
   1.41666675      0.175000012      0.735082030      -9.28083062E-03  0.735140622    
   1.41666675      0.224999994      0.891194046      -9.55597591E-03  0.891245246    
   1.41666675      0.275000006       1.02239048      -8.98275338E-03   1.02242994    
   1.41666675      0.324999988       1.12807453      -7.72454496E-03   1.12810099    
   1.41666675      0.375000000       1.20775557      -5.94370626E-03   1.20777011    
   1.41666675      0.425000012       1.26106405      -3.79734999E-03   1.26106977    
   1.41666675      0.475000024       1.28775561      -1.43568940E-03   1.28775632    
   1.41666675      0.524999976       1.28770876       9.97425173E-04   1.28770912    
   1.41666675      0.575000048       1.26092672       3.36028170E-03   1.26093125    
   1.41666675      0.625000000       1.20753622       5.50835859E-03   1.20754886    
   1.41666675      0.675000012       1.12778664       7.29157217E-03   1.12781024    
   1.41666675      0.725000024       1.02205372       8.55257921E-03   1.02208948    
   1.41666675      0.774999976      0.890834510       9.12864599E-03  0.890881300    
   1.41666675      0.825000048      0.734730959       8.85668583E-03  0.734784365    
   1.41666675      0.875000000      0.554429412       7.57885864E-03  0.554481208    
   1.41666675      0.925000012      0.350671411       5.15099894E-03  0.350709230    
   1.41666675      0.975000024      0.124219507       1.81637181E-03  0.124232784    
   1.41666675       1.00000000       0.00000000       0.00000000       0.00000000    
   1.58333349       0.00000000       0.00000000       0.00000000       0.00000000    
   1.58333349       2.50000004E-02  0.121852465      -2.01802584E-03  0.121869177    
   1.58333349       7.50000030E-02  0.343945622      -5.56932483E-03  0.343990713    
   1.58333349      0.125000000      0.543731451      -8.02809373E-03  0.543790758    
   1.58333349      0.175000012      0.720483303      -9.34106112E-03  0.720543861    
   1.58333349      0.224999994      0.873497963      -9.65050049E-03  0.873551250    
   1.58333349      0.275000006       1.00211740      -9.10461694E-03   1.00215876    
   1.58333349      0.324999988       1.10575545      -7.85640441E-03   1.10578334    
   1.58333349      0.375000000       1.18391919      -6.06144033E-03   1.18393469    
   1.58333349      0.425000012       1.23622787      -3.87665955E-03   1.23623395    
   1.58333349      0.475000024       1.26242340      -1.45853532E-03   1.26242423    
   1.58333349      0.524999976       1.26237559       1.03744701E-03   1.26237607    
   1.58333349      0.575000048       1.23608804       3.45576811E-03   1.23609293    
   1.58333349      0.625000000       1.18369651       5.64067764E-03   1.18370998    
   1.58333349      0.675000012       1.10546386       7.43586011E-03   1.10548890    
   1.58333349      0.725000024       1.00177741       8.68432224E-03   1.00181508    
   1.58333349      0.774999976      0.873135567       9.23026819E-03  0.873184323    
   1.58333349      0.825000048      0.720130444       8.92140344E-03  0.720185697    
   1.58333349      0.875000000      0.543425083       7.61050917E-03  0.543478370    
   1.58333349      0.925000012      0.343729019       5.16081229E-03  0.343767762    
   1.58333349      0.975000024      0.121771418       1.81755319E-03  0.121784978    
   1.58333349       1.00000000       0.00000000       0.00000000       0.00000000    
   1.75000000       0.00000000       0.00000000       0.00000000       0.00000000    
   1.75000000       2.50000004E-02  0.119404510      -2.01732782E-03  0.119421549    
   1.75000000       7.50000030E-02  0.337025046      -5.56777557E-03  0.337071031    
   1.75000000      0.125000000      0.532776952      -8.02773237E-03  0.532837391    
   1.75000000      0.175000012      0.705953360      -9.34489071E-03  0.706015170    
   1.75000000      0.224999994      0.855871081      -9.66110174E-03  0.855925620    
   1.75000000      0.275000006      0.981890440      -9.12211277E-03  0.981932819    
   1.75000000      0.324999988       1.08343840      -7.87764415E-03   1.08346701    
   1.75000000      0.375000000       1.16003191      -6.08159974E-03   1.16004789    
   1.75000000      0.425000012       1.21129334      -3.88999190E-03   1.21129954    
   1.75000000      0.475000024       1.23696518      -1.46025885E-03   1.23696601    
   1.75000000      0.524999976       1.23691761       1.04866759E-03   1.23691809    
   1.75000000      0.575000048       1.21115446       3.47792218E-03   1.21115947    
   1.75000000      0.625000000       1.15981078       5.66908484E-03   1.15982473    
   1.75000000      0.675000012       1.08314967       7.46412575E-03   1.08317542    
   1.75000000      0.725000024      0.981553972       8.70712567E-03  0.981592596    
   1.75000000      0.774999976      0.855513334       9.24501382E-03  0.855563283    
   1.75000000      0.825000048      0.705605507       8.92821513E-03  0.705662012    
   1.75000000      0.875000000      0.532475829       7.61169661E-03  0.532530248    
   1.75000000      0.925000012      0.336812913       5.15977992E-03  0.336852431    
   1.75000000      0.975000024      0.119326003       1.81695516E-03  0.119339839    
   1.75000000       1.00000000       0.00000000       0.00000000       0.00000000    
   1.91666675       0.00000000       0.00000000       0.00000000       0.00000000    
   1.91666675       2.50000004E-02  0.116952486      -2.01623421E-03  0.116969861    
   1.91666675       7.50000030E-02  0.330100060      -5.56413876E-03  0.330146939    
   1.91666675      0.125000000      0.521823764      -8.02158192E-03  0.521885395    
   1.91666675      0.175000012      0.691432118      -9.33736097E-03  0.691495121    
   1.91666675      0.224999994      0.838257551      -9.65330750E-03  0.838313103    
   1.91666675      0.275000006      0.961675763      -9.11507662E-03  0.961718976    
   1.91666675      0.324999988       1.06112742      -7.87229463E-03   1.06115663    
   1.91666675      0.375000000       1.13614011      -6.07771054E-03   1.13615644    
   1.91666675      0.425000012       1.18634343      -3.88690596E-03   1.18634987    
   1.91666675      0.475000024       1.21148562      -1.45771296E-03   1.21148646    
   1.91666675      0.524999976       1.21143937       1.05081906E-03   1.21143985    
   1.91666675      0.575000048       1.18620753       3.47930426E-03   1.18621266    
   1.91666675      0.625000000       1.13592315       5.66879520E-03   1.13593733    
   1.91666675      0.675000012       1.06084442       7.46176764E-03   1.06087065    
   1.91666675      0.725000024      0.961346149       8.70272424E-03  0.961385548    
   1.91666675      0.774999976      0.837907434       9.23896208E-03  0.837958395    
   1.91666675      0.825000048      0.691092253       8.92156176E-03  0.691149831    
   1.91666675      0.875000000      0.521529973       7.60596432E-03  0.521585405    
   1.91666675      0.925000012      0.329893440       5.15643973E-03  0.329933733    
   1.91666675      0.975000024      0.116876289       1.81601569E-03  0.116890393    
   1.91666675       1.00000000       0.00000000       0.00000000       0.00000000    
   2.08333349       0.00000000       0.00000000       0.00000000       0.00000000    
   2.08333349       2.50000004E-02  0.114496522      -2.01609288E-03  0.114514269    
   2.08333349       7.50000030E-02  0.323167831      -5.56309614E-03  0.323215723    
   2.08333349      0.125000000      0.510863841      -8.01878422E-03  0.510926783    
   2.08333349      0.175000012      0.676906645      -9.33260936E-03  0.676970959    
   2.08333349      0.224999994      0.820643306      -9.64732096E-03  0.820699990    
   2.08333349      0.275000006      0.941463351      -9.10879485E-03  0.941507399    
   2.08333349      0.324999988       1.03882062      -7.86622707E-03   1.03885043    
   2.08333349      0.375000000       1.11225247      -6.07260130E-03   1.11226904    
   2.08333349      0.425000012       1.16139770      -3.88338976E-03   1.16140425    
   2.08333349      0.475000024       1.18601012      -1.45599688E-03   1.18601108    
   2.08333349      0.524999976       1.18596530       1.05050509E-03   1.18596578    
   2.08333349      0.575000048       1.16126537       3.47698480E-03   1.16127062    
   2.08333349      0.625000000       1.11204100       5.66494837E-03   1.11205542    
   2.08333349      0.675000012       1.03854465       7.45663419E-03   1.03857136    
   2.08333349      0.725000024      0.941142201       8.69679265E-03  0.941182375    
   2.08333349      0.774999976      0.820302129       9.23322979E-03  0.820354104    
   2.08333349      0.825000048      0.676575899       8.91704671E-03  0.676634669    
   2.08333349      0.875000000      0.510578036       7.60319550E-03  0.510634661    
   2.08333349      0.925000012      0.322966963       5.15515124E-03  0.323008090    
   2.08333349      0.975000024      0.114422321       1.81568402E-03  0.114436723    
   2.08333349       1.00000000       0.00000000       0.00000000       0.00000000    
   2.25000000       0.00000000       0.00000000       0.00000000       0.00000000    
   2.25000000       2.50000004E-02  0.112038136      -2.01560650E-03  0.112056263    
   2.25000000       7.50000030E-02  0.316231072      -5.56162791E-03  0.316279978    
   2.25000000      0.125000000      0.499898732      -8.01636279E-03  0.499963015    
   2.25000000      0.175000012      0.662376881      -9.32947081E-03  0.662442625    
   2.25000000      0.224999994      0.803026497      -9.64352489E-03  0.803084373    
   2.25000000      0.275000006      0.921250701      -9.10459086E-03  0.921295702    
   2.25000000      0.324999988       1.01651549      -7.86233973E-03   1.01654589    
   2.25000000      0.375000000       1.08836865      -6.06948417E-03   1.08838558    
   2.25000000      0.425000012       1.13645697      -3.88139440E-03   1.13646352    
   2.25000000      0.475000024       1.16054058      -1.45558652E-03   1.16054153    
   2.25000000      0.524999976       1.16049671       1.04942336E-03   1.16049719    
   2.25000000      0.575000048       1.13632870       3.47460969E-03   1.13633406    
   2.25000000      0.625000000       1.08816314       5.66123053E-03   1.08817780    
   2.25000000      0.675000012       1.01624703       7.45227281E-03   1.01627433    
   2.25000000      0.725000024      0.920938790       8.69236980E-03  0.920979798    
   2.25000000      0.774999976      0.802695155       9.22894105E-03  0.802748203    
   2.25000000      0.825000048      0.662055373       8.91326554E-03  0.662115395    
   2.25000000      0.875000000      0.499621034       7.60037079E-03  0.499678850    
   2.25000000      0.925000012      0.316035926       5.15365368E-03  0.316077948    
   2.25000000      0.975000024      0.111965820       1.81528099E-03  0.111980535    
   2.25000000       1.00000000       0.00000000       0.00000000       0.00000000    
   2.41666698       0.00000000       0.00000000       0.00000000       0.00000000    
   2.41666698       2.50000004E-02  0.109578267      -2.01577996E-03  0.109596804    
   2.41666698       7.50000030E-02  0.309291601      -5.56180626E-03  0.309341609    
   2.41666698      0.125000000      0.488930583      -8.01605452E-03  0.488996297    
   2.41666698      0.175000012      0.647844434      -9.32844169E-03  0.647911608    
   2.41666698      0.224999994      0.785407960      -9.64205991E-03  0.785467148    
   2.41666698      0.275000006      0.901037455      -9.10297595E-03  0.901083410    
   2.41666698      0.324999988      0.994211078      -7.86059350E-03  0.994242132    
   2.41666698      0.375000000       1.06448722      -6.06805086E-03   1.06450450    
   2.41666698      0.425000012       1.11151981      -3.88068100E-03   1.11152661    
   2.41666698      0.475000024       1.13507485      -1.45551364E-03   1.13507581    
   2.41666698      0.524999976       1.13503218       1.04861148E-03   1.13503265    
   2.41666698      0.575000048       1.11139500       3.47291725E-03   1.11140037    
   2.41666698      0.625000000       1.06428754       5.65918535E-03   1.06430256    
   2.41666698      0.675000012      0.993950427       7.44977687E-03  0.993978322    
   2.41666698      0.725000024      0.900734603       8.68977793E-03  0.900776505    
   2.41666698      0.774999976      0.785086155       9.22696013E-03  0.785140336    