 TITLE = "TESTPLOT" 
 VARIABLES="x","y","fx","fy","magf" 
 ZONE T="1", I=          61 , J=          21
   0.00000000       0.00000000       1.00000000       0.00000000       1.00000000    
   0.00000000       2.50000004E-02   1.00000000       0.00000000       1.00000000    
   0.00000000       7.50000030E-02   1.00000000       0.00000000       1.00000000    
   0.00000000      0.125000000       1.00000000       0.00000000       1.00000000    
   0.00000000      0.175000012       1.00000000       0.00000000       1.00000000    
   0.00000000      0.224999994       1.00000000       0.00000000       1.00000000    
   0.00000000      0.275000006       1.00000000       0.00000000       1.00000000    
   0.00000000      0.324999988       1.00000000       0.00000000       1.00000000    
   0.00000000      0.375000000       1.00000000       0.00000000       1.00000000    
   0.00000000      0.425000012       1.00000000       0.00000000       1.00000000    
   0.00000000      0.475000024       1.00000000       0.00000000       1.00000000    
   0.00000000      0.524999976       1.00000000       0.00000000       1.00000000    
   0.00000000      0.575000048       1.00000000       0.00000000       1.00000000    
   0.00000000      0.625000000       1.00000000       0.00000000       1.00000000    
   0.00000000      0.675000012       1.00000000       0.00000000       1.00000000    
   0.00000000      0.725000024       1.00000000       0.00000000       1.00000000    
   0.00000000      0.774999976       1.00000000       0.00000000       1.00000000    
   0.00000000      0.825000048       1.00000000       0.00000000       1.00000000    
   0.00000000      0.875000000       1.00000000       0.00000000       1.00000000    
   0.00000000      0.925000012       1.00000000       0.00000000       1.00000000    
   0.00000000      0.975000024       1.00000000       0.00000000       1.00000000    
   0.00000000       1.00000000       1.00000000       0.00000000       1.00000000    
   8.33333358E-02   0.00000000      0.500000000       0.00000000      0.500000000    
   8.33333358E-02   2.50000004E-02  0.674312294       9.53278914E-02  0.681017220    
   8.33333358E-02   7.50000030E-02  0.869985580      0.227097988      0.899137616    
   8.33333358E-02  0.125000000      0.977115691      0.267845958       1.01316166    
   8.33333358E-02  0.175000012       1.03224301      0.259920537       1.06446433    
   8.33333358E-02  0.224999994       1.05716038      0.227983624       1.08146405    
   8.33333358E-02  0.275000006       1.06528711      0.186134294       1.08142626    
   8.33333358E-02  0.324999988       1.06498134      0.141939163       1.07439840    
   8.33333358E-02  0.375000000       1.06140161       9.89099070E-02   1.06600022    
   8.33333358E-02  0.425000012       1.05762792       5.80864251E-02   1.05922174    
   8.33333358E-02  0.475000024       1.05536675       1.90735478E-02   1.05553913    
   8.33333358E-02  0.524999976       1.05537200      -1.92624349E-02   1.05554783    
   8.33333358E-02  0.575000048       1.05764472      -5.82818687E-02   1.05924928    
   8.33333358E-02  0.625000000       1.06142974      -9.91182923E-02   1.06604755    
   8.33333358E-02  0.675000012       1.06502032     -0.142167449       1.07446730    
   8.33333358E-02  0.725000024       1.06533527     -0.186388642       1.08151734    
   8.33333358E-02  0.774999976       1.05721641     -0.228268638       1.08157897    
   8.33333358E-02  0.825000048       1.03230286     -0.260238826       1.06460011    
   8.33333358E-02  0.875000000      0.977173686     -0.268196821       1.01331043    
   8.33333358E-02  0.925000012      0.870035172     -0.227471739      0.899280071    
   8.33333358E-02  0.975000024      0.674343765      -9.55183581E-02  0.681075096    
   8.33333358E-02   1.00000000      0.500000000       0.00000000      0.500000000    
  0.250000000       0.00000000       0.00000000       0.00000000       0.00000000    
  0.250000000       2.50000004E-02  0.272580773       2.04221513E-02  0.273344725    
  0.250000000       7.50000030E-02  0.632864118       7.03980699E-02  0.636767507    
  0.250000000      0.125000000      0.866703868      0.123633593      0.875477493    
  0.250000000      0.175000012       1.01308537      0.160160199       1.02566719    
  0.250000000      0.224999994       1.09984112      0.174774110       1.11364114    
  0.250000000      0.275000006       1.14731574      0.168945879       1.15968800    
  0.250000000      0.324999988       1.17033637      0.146661952       1.17949009    
  0.250000000      0.375000000       1.17946696      0.112401679       1.18481076    
  0.250000000      0.425000012       1.18189108       7.02630505E-02   1.18397784    
  0.250000000      0.475000024       1.18205082       2.37283371E-02   1.18228889    
  0.250000000      0.524999976       1.18206310      -2.42115445E-02   1.18231106    
  0.250000000      0.575000048       1.18192816      -7.07478076E-02   1.18404365    
  0.250000000      0.625000000       1.17952693     -0.112888902       1.18491673    
  0.250000000      0.675000012       1.17041636     -0.147151262       1.17963040    
  0.250000000      0.725000024       1.14740956     -0.169434935       1.15985215    
  0.250000000      0.774999976       1.09994173     -0.175258502       1.11381662    
  0.250000000      0.825000048       1.01318526     -0.160634011       1.02583992    
  0.250000000      0.875000000      0.866793573     -0.124090694      0.875630975    
  0.250000000      0.925000012      0.632935166      -7.08286688E-02  0.636885881    
  0.250000000      0.975000024      0.272624075      -2.06291210E-02  0.273403466    
  0.250000000       1.00000000       0.00000000       0.00000000       0.00000000    
  0.416666687       0.00000000       0.00000000       0.00000000       0.00000000    
  0.416666687       2.50000004E-02  0.175985515       3.77424713E-03  0.176025987    
  0.416666687       7.50000030E-02  0.480601788       1.85171068E-02  0.480958372    
  0.416666687      0.125000000      0.727783144       4.23277281E-02  0.729013026    
  0.416666687      0.175000012      0.918042779       6.56872392E-02  0.920389771    
  0.416666687      0.224999994       1.05766249       8.19395930E-02   1.06083179    
  0.416666687      0.275000006       1.15540969       8.76939595E-02   1.15873277    
  0.416666687      0.324999988       1.22048390       8.22068006E-02   1.22324932    
  0.416666687      0.375000000       1.26125264       6.65889457E-02   1.26300919    
  0.416666687      0.425000012       1.28448367       4.31161262E-02   1.28520703    
  0.416666687      0.475000024       1.29489613       1.47217382E-02   1.29497981    
  0.416666687      0.524999976       1.29490495      -1.53424190E-02   1.29499578    
  0.416666687      0.575000048       1.28451037      -4.37312499E-02   1.28525460    
  0.416666687      0.625000000       1.26129222      -6.71925619E-02   1.26308072    
  0.416666687      0.675000012       1.22053170      -8.27926546E-02   1.22333658    
  0.416666687      0.725000024       1.15545702      -8.82556587E-02   1.15882266    
  0.416666687      0.774999976       1.05770278      -8.24722648E-02   1.06091321    
  0.416666687      0.825000048      0.918070793      -6.61880821E-02  0.920453608    
  0.416666687      0.875000000      0.727797151      -4.27954420E-02  0.729054332    
  0.416666687      0.925000012      0.480606854      -1.89489480E-02  0.480980247    
  0.416666687      0.975000024      0.175992325      -3.98055417E-03  0.176037341    
  0.416666687       1.00000000       0.00000000       0.00000000       0.00000000    
  0.583333373       0.00000000       0.00000000       0.00000000       0.00000000    
  0.583333373       2.50000004E-02  0.148135737      -2.01213785E-04  0.148135871    
  0.583333373       7.50000030E-02  0.416623592       2.66672438E-03  0.416632116    
  0.583333373      0.125000000      0.651357174       1.06697353E-02  0.651444554    
  0.583333373      0.175000012      0.848994970       2.06502695E-02  0.849246085    
  0.583333373      0.224999994       1.00911713       2.93761007E-02   1.00954461    
  0.583333373      0.275000006       1.13369465       3.44011337E-02   1.13421643    
  0.583333373      0.324999988       1.22623003       3.43809351E-02   1.22671187    
  0.583333373      0.375000000       1.29083192       2.91034244E-02   1.29115999    
  0.583333373      0.425000012       1.33137941       1.93360876E-02   1.33151972    
  0.583333373      0.475000024       1.35084844       6.57840678E-03   1.35086453    
  0.583333373      0.524999976       1.35084510      -7.22275302E-03   1.35086441    
  0.583333373      0.575000048       1.33136988      -1.99713036E-02   1.33151960    
  0.583333373      0.625000000       1.29081225      -2.97213905E-02   1.29115438    
  0.583333373      0.675000012       1.22619724      -3.49744260E-02   1.22669590    
  0.583333373      0.725000024       1.13364506      -3.49647887E-02   1.13418412    
  0.583333373      0.774999976       1.00905144      -2.99064778E-02   1.00949454    
  0.583333373      0.825000048      0.848915815      -2.11457983E-02  0.849179149    
  0.583333373      0.875000000      0.651274562      -1.11318026E-02  0.651369691    
  0.583333373      0.925000012      0.416557282      -3.09479795E-03  0.416568786    
  0.583333373      0.975000024      0.148112357      -3.83099496E-06  0.148112357    
  0.583333373       1.00000000       0.00000000       0.00000000       0.00000000    
  0.750000000       0.00000000       0.00000000       0.00000000       0.00000000    
  0.750000000       2.50000004E-02  0.137605876      -1.42135995E-03  0.137613222    
  0.750000000       7.50000030E-02  0.388862431      -2.73919990E-03  0.388872087    
  0.750000000      0.125000000      0.613335848      -1.31512177E-03  0.613337278    
  0.750000000      0.175000012      0.808747411       1.88277196E-03  0.808749616    
  0.750000000      0.224999994      0.973820150       5.52073307E-03  0.973835766    
  0.750000000      0.275000006       1.10838962       8.37823562E-03   1.10842133    
  0.750000000      0.324999988       1.21325386       9.58542153E-03   1.21329176    
  0.750000000      0.375000000       1.28982854       8.75987299E-03   1.28985834    
  0.750000000      0.425000012       1.33971429       6.03094976E-03   1.33972788    
  0.750000000      0.475000024       1.36426473       1.96614256E-03   1.36426616    
  0.750000000      0.524999976       1.36424744      -2.57529737E-03   1.36424994    
  0.750000000      0.575000048       1.33966255      -6.63207332E-03   1.33967900    
  0.750000000      0.625000000       1.28974247      -9.34564136E-03   1.28977633    
  0.750000000      0.675000012       1.21313453      -1.01495422E-02   1.21317697    
  0.750000000      0.725000024       1.10824060      -8.91591143E-03   1.10827649    
  0.750000000      0.774999976      0.973649859      -6.02954905E-03  0.973668516    
  0.750000000      0.825000048      0.808568418      -2.36255745E-03  0.808571875    
  0.750000000      0.875000000      0.613168657       8.62679095E-04  0.613169253    
  0.750000000      0.925000012      0.388737142       2.31542392E-03  0.388744026    
  0.750000000      0.975000024      0.137559056       1.21730159E-03  0.137564451    
  0.750000000       1.00000000       0.00000000       0.00000000       0.00000000    
  0.916666687       0.00000000       0.00000000       0.00000000       0.00000000    
  0.916666687       2.50000004E-02  0.132516623      -1.83345343E-03  0.132529303    
  0.916666687       7.50000030E-02  0.374620557      -4.65368247E-03  0.374649465    
  0.916666687      0.125000000      0.592205524      -5.77385444E-03  0.592233658    
  0.916666687      0.175000012      0.783798516      -5.45020867E-03  0.783817470    
  0.916666687      0.224999994      0.948283195      -4.24187537E-03  0.948292673    
  0.916666687      0.275000006       1.08500123      -2.71972525E-03   1.08500457    
  0.916666687      0.324999988       1.19376206      -1.36011699E-03   1.19376290    
  0.916666687      0.375000000       1.27475309      -4.61297517E-04   1.27475321    
  0.916666687      0.425000012       1.32837510      -1.04740306E-04   1.32837510    
  0.916666687      0.475000024       1.35504341      -1.68393424E-04   1.35504341    
  0.916666687      0.524999976       1.35501432      -3.87250911E-04   1.35501444    
  0.916666687      0.575000048       1.32828867      -4.45011305E-04   1.32828879    
  0.916666687      0.625000000       1.27461255      -7.69107937E-05   1.27461255    
  0.916666687      0.675000012       1.19357276       8.37975706E-04   1.19357312    
  0.916666687      0.725000024       1.08477259       2.21660989E-03   1.08477485    
  0.916666687      0.774999976      0.948031068       3.75943212E-03  0.948038518    
  0.916666687      0.825000048      0.783543706       4.98877373E-03  0.783559561    
  0.916666687      0.875000000      0.591975868       5.33221336E-03  0.591999888    
  0.916666687      0.925000012      0.374453068       4.23462316E-03  0.374476999    
  0.916666687      0.975000024      0.132453710       1.63050229E-03  0.132463738    
  0.916666687       1.00000000       0.00000000       0.00000000       0.00000000    
   1.08333337       0.00000000       0.00000000       0.00000000       0.00000000    
   1.08333337       2.50000004E-02  0.129255623      -1.96937402E-03  0.129270628    
   1.08333337       7.50000030E-02  0.365292907      -5.30915800E-03  0.365331501    
   1.08333337      0.125000000      0.577727675      -7.35432003E-03  0.577774465    
   1.08333337      0.175000012      0.765462160      -8.13511293E-03  0.765505373    
   1.08333337      0.224999994      0.927564144      -7.92566594E-03  0.927598000    
   1.08333337      0.275000006       1.06330752      -7.02170935E-03   1.06333077    
   1.08333337      0.324999988       1.17219341      -5.69973141E-03   1.17220724    
   1.08333337      0.375000000       1.25393796      -4.17992892E-03   1.25394499    
   1.08333337      0.425000012       1.30842769      -2.60409038E-03   1.30843031    
   1.08333337      0.475000024       1.33564687      -1.03361264E-03   1.33564723    
   1.08333337      0.524999976       1.33560967       5.29380166E-04   1.33560979    
   1.08333337      0.575000048       1.30831695       2.10401649E-03   1.30831861    
   1.08333337      0.625000000       1.25375903       3.68725299E-03   1.25376439    
   1.08333337      0.675000012       1.17195582       5.21714985E-03   1.17196739    
   1.08333337      0.725000024       1.06302559       6.55143056E-03   1.06304574    
   1.08333337      0.774999976      0.927257776       7.46864313E-03  0.927287817    
   1.08333337      0.825000048      0.765157819       7.69115519E-03  0.765196443    
   1.08333337      0.875000000      0.577457845       6.92273071E-03  0.577499330    
   1.08333337      0.925000012      0.365098506       4.89443308E-03  0.365131319    
   1.08333337      0.975000024      0.129182577       1.76745129E-03  0.129194662    
   1.08333337       1.00000000       0.00000000       0.00000000       0.00000000    
   1.25000000       0.00000000       0.00000000       0.00000000       0.00000000    
   1.25000000       2.50000004E-02  0.126583800      -2.00990122E-03  0.126599759    
   1.25000000       7.50000030E-02  0.357657373      -5.51407412E-03  0.357699871    
   1.25000000      0.125000000      0.565670490      -7.86766317E-03  0.565725207    
   1.25000000      0.175000012      0.749678195      -9.03511047E-03  0.749732673    
   1.25000000      0.224999994      0.908853412      -9.19425674E-03  0.908899903    
   1.25000000      0.275000006       1.04249012      -8.53698701E-03   1.04252505    
   1.25000000      0.324999988       1.15001225      -7.25599751E-03   1.15003514    
   1.25000000      0.375000000       1.23098242      -5.53081464E-03   1.23099482    
   1.25000000      0.425000012       1.28509820      -3.51704331E-03   1.28510296    
   1.25000000      0.475000024       1.31217670      -1.34373421E-03   1.31217742    
   1.25000000      0.524999976       1.31213427       8.80995998E-04   1.31213462    
   1.25000000      0.575000048       1.28497279       3.05659394E-03   1.28497648    
   1.25000000      0.625000000       1.23078084       5.07425843E-03   1.23079133    
   1.25000000      0.675000012       1.14974654       6.80453004E-03   1.14976668    
   1.25000000      0.725000024       1.04217756       8.09160434E-03   1.04220891    
   1.25000000      0.774999976      0.908517003       8.75567272E-03  0.908559203    
   1.25000000      0.825000048      0.749346852       8.60316865E-03  0.749396265    
   1.25000000      0.875000000      0.565379441       7.44242873E-03  0.565428436    
   1.25000000      0.925000012      0.357449293       5.10175433E-03  0.357485712    
   1.25000000      0.975000024      0.126505345       1.80841680E-03  0.126518279    
   1.25000000       1.00000000       0.00000000       0.00000000       0.00000000    
   1.41666675       0.00000000       0.00000000       0.00000000       0.00000000    
   1.41666675       2.50000004E-02  0.124078237      -2.01942725E-03  0.124094665    
   1.41666675       7.50000030E-02  0.350548148      -5.56694157E-03  0.350592345    
   1.41666675      0.125000000      0.554412603      -8.00942723E-03  0.554470479    
   1.41666675      0.175000012      0.734783411      -9.29643400E-03  0.734842241    
   1.41666675      0.224999994      0.890886188      -9.57624801E-03  0.890937686    
   1.41666675      0.275000006       1.02204394      -9.00585391E-03   1.02208364    
   1.41666675      0.324999988       1.12767458      -7.74743315E-03   1.12770116    
   1.41666675      0.375000000       1.20730281      -5.96272945E-03   1.20731747    
   1.41666675      0.425000012       1.26057029      -3.80939455E-03   1.26057601    
   1.41666675      0.475000024       1.28723991      -1.43862679E-03   1.28724074    
   1.41666675      0.524999976       1.28719497       1.00435328E-03   1.28719532    
   1.41666675      0.575000048       1.26043820       3.37601779E-03   1.26044273    
   1.41666675      0.625000000       1.20709097       5.53066842E-03   1.20710361    
   1.41666675      0.675000012       1.12739658       7.31724873E-03   1.12742031    
   1.41666675      0.725000024       1.02171862       8.57783854E-03   1.02175462    
   1.41666675      0.774999976      0.890537858       9.15035978E-03  0.890584886    
   1.41666675      0.825000048      0.734442115       8.87306035E-03  0.734495699    
   1.41666675      0.875000000      0.554114640       7.58944452E-03  0.554166615    
   1.41666675      0.925000012      0.350336492       5.15691610E-03  0.350374430    
   1.41666675      0.975000024      0.123999074       1.81842165E-03  0.124012403    
   1.41666675       1.00000000       0.00000000       0.00000000       0.00000000    
   1.58333349       0.00000000       0.00000000       0.00000000       0.00000000    
   1.58333349       2.50000004E-02  0.121607505      -2.01987405E-03  0.121624283    
   1.58333349       7.50000030E-02  0.343573928      -5.57394000E-03  0.343619138    
   1.58333349      0.125000000      0.543380439      -8.03492777E-03  0.543439865    
   1.58333349      0.175000012      0.720159173      -9.35084000E-03  0.720219910    
   1.58333349      0.224999994      0.873162031      -9.66333412E-03  0.873215497    
   1.58333349      0.275000006       1.00173569      -9.11933929E-03   1.00177717    
   1.58333349      0.324999988       1.10531092      -7.87102617E-03   1.10533893    
   1.58333349      0.375000000       1.18341184      -6.07369561E-03   1.18342745    
   1.58333349      0.425000012       1.23567164      -3.88427405E-03   1.23567784    
   1.58333349      0.475000024       1.26184070      -1.45995733E-03   1.26184154    
   1.58333349      0.524999976       1.26179504       1.04270328E-03   1.26179552    
   1.58333349      0.575000048       1.23553777       3.46715096E-03   1.23554265    
   1.58333349      0.625000000       1.18319809       5.65635599E-03   1.18321157    
   1.58333349      0.675000012       1.10503078       7.45338760E-03   1.10505593    
   1.58333349      0.725000024       1.00140929       8.70140828E-03   1.00144708    
   1.58333349      0.774999976      0.872813404       9.24482755E-03  0.872862339    
   1.58333349      0.825000048      0.719818711       8.93219374E-03  0.719874144    
   1.58333349      0.875000000      0.543084323       7.61770038E-03  0.543137729    
   1.58333349      0.925000012      0.343364000       5.16531942E-03  0.343402863    
   1.58333349      0.975000024      0.121529467       1.81924866E-03  0.121543087    
   1.58333349       1.00000000       0.00000000       0.00000000       0.00000000    
   1.75000000       0.00000000       0.00000000       0.00000000       0.00000000    
   1.75000000       2.50000004E-02  0.119136766      -2.01895530E-03  0.119153872    
   1.75000000       7.50000030E-02  0.336618066      -5.57101890E-03  0.336664170    
   1.75000000      0.125000000      0.532392263      -8.03119130E-03  0.532452822    
   1.75000000      0.175000012      0.705597937      -9.34922136E-03  0.705659866    
   1.75000000      0.224999994      0.855503082      -9.66677163E-03  0.855557740    
   1.75000000      0.275000006      0.981472492      -9.12887231E-03  0.981514931    
   1.75000000      0.324999988       1.08295226      -7.88459182E-03   1.08298099    
   1.75000000      0.375000000       1.15947664      -6.08743913E-03   1.15949261    
   1.75000000      0.425000012       1.21068382      -3.89346993E-03   1.21069014    
   1.75000000      0.475000024       1.23632669      -1.46060647E-03   1.23632753    
   1.75000000      0.524999976       1.23628139       1.05156633E-03   1.23628187    
   1.75000000      0.575000048       1.21055126       3.48369079E-03   1.21055627    
   1.75000000      0.625000000       1.15926552       5.67686092E-03   1.15927935    
   1.75000000      0.675000012       1.08267593       7.47261196E-03   1.08270168    
   1.75000000      0.725000024      0.981150746       8.71506054E-03  0.981189430    
   1.75000000      0.774999976      0.855160475       9.25147440E-03  0.855210543    
   1.75000000      0.825000048      0.705264091       8.93284008E-03  0.705320656    
   1.75000000      0.875000000      0.532102287       7.61494972E-03  0.532156765    
   1.75000000      0.925000012      0.336412609       5.16244583E-03  0.336452216    
   1.75000000      0.975000024      0.119060323       1.81822386E-03  0.119074203    
   1.75000000       1.00000000       0.00000000       0.00000000       0.00000000    
   1.91666675       0.00000000       0.00000000       0.00000000       0.00000000    
   1.91666675       2.50000004E-02  0.116660073      -2.01779301E-03  0.116677523    
   1.91666675       7.50000030E-02  0.329654247      -5.56705054E-03  0.329701245    
   1.91666675      0.125000000      0.521401167      -8.02373514E-03  0.521462858    
   1.91666675      0.175000012      0.691041350      -9.33895633E-03  0.691104412    
   1.91666675      0.224999994      0.837854922      -9.65515897E-03  0.837910533    
   1.91666675      0.275000006      0.961221814      -9.11738258E-03  0.961265087    
   1.91666675      0.324999988       1.06060243      -7.87475891E-03   1.06063163    
   1.91666675      0.375000000       1.13554287      -6.07986376E-03   1.13555908    
   1.91666675      0.425000012       1.18568969      -3.88837769E-03   1.18569613    
   1.91666675      0.475000024       1.21080196      -1.45831367E-03   1.21080279    
   1.91666675      0.524999976       1.21075773       1.05126563E-03   1.21075821    
   1.91666675      0.575000048       1.18556046       3.48066585E-03   1.18556559    
   1.91666675      0.625000000       1.13533664       5.67065645E-03   1.13535082    
   1.91666675      0.675000012       1.06033278       7.46370433E-03   1.06035900    
   1.91666675      0.725000024      0.960908055       8.70447606E-03  0.960947514    
   1.91666675      0.774999976      0.837521315       9.24056768E-03  0.837572277    
   1.91666675      0.825000048      0.690716863       8.92302673E-03  0.690774500    
   1.91666675      0.875000000      0.521119416       7.60761555E-03  0.521174908    
   1.91666675      0.925000012      0.329455078       5.15857246E-03  0.329495460    
   1.91666675      0.975000024      0.116586439       1.81718834E-03  0.116600603    
   1.91666675       1.00000000       0.00000000       0.00000000       0.00000000    
   2.08333349       0.00000000       0.00000000       0.00000000       0.00000000    
   2.08333349       2.50000004E-02  0.114179492      -2.01708637E-03  0.114197306    
   2.08333349       7.50000030E-02  0.322682202      -5.56440745E-03  0.322730184    
   2.08333349      0.125000000      0.510401249      -8.01879354E-03  0.510464251    
   2.08333349      0.175000012      0.676478684      -9.33190342E-03  0.676543057    
   2.08333349      0.224999994      0.820204973      -9.64637101E-03  0.820261717    
   2.08333349      0.275000006      0.940973759      -9.10785794E-03  0.941017807    
   2.08333349      0.324999988       1.03825879      -7.86569808E-03   1.03828859    
   2.08333349      0.375000000       1.11161828      -6.07235637E-03   1.11163485    
   2.08333349      0.425000012       1.16070652      -3.88346659E-03   1.16071308    
   2.08333349      0.475000024       1.18528855      -1.45667884E-03   1.18528938    
   2.08333349      0.524999976       1.18524575       1.04938750E-03   1.18524623    
   2.08333349      0.575000048       1.16058087       3.47563112E-03   1.16058600    
   2.08333349      0.625000000       1.11141777       5.66317514E-03   1.11143219    
   2.08333349      0.675000012       1.03799701       7.45459460E-03   1.03802371    
   2.08333349      0.725000024      0.940669060       8.69474187E-03  0.940709233    
   2.08333349      0.774999976      0.819880962       9.23119672E-03  0.819932938    
   2.08333349      0.825000048      0.676163673       8.91532376E-03  0.676222444    
   2.08333349      0.875000000      0.510127902       7.60266557E-03  0.510184526    
   2.08333349      0.925000012      0.322489202       5.15622692E-03  0.322530419    
   2.08333349      0.975000024      0.114108190       1.81655318E-03  0.114122652    
   2.08333349       1.00000000       0.00000000       0.00000000       0.00000000    
   2.25000000       0.00000000       0.00000000       0.00000000       0.00000000    
   2.25000000       2.50000004E-02  0.111697607      -2.01674853E-03  0.111715816    
   2.25000000       7.50000030E-02  0.315706372      -5.56314550E-03  0.315755397    
   2.25000000      0.125000000      0.499396235      -8.01621191E-03  0.499460548    
   2.25000000      0.175000012      0.661911726      -9.32786986E-03  0.661977470    
   2.25000000      0.224999994      0.802552998      -9.64117423E-03  0.802610874    
   2.25000000      0.275000006      0.920726895      -9.10206698E-03  0.920771897    
   2.25000000      0.324999988       1.01592016      -7.86014739E-03   1.01595056    
   2.25000000      0.375000000       1.08770156      -6.06797496E-03   1.08771849    
   2.25000000      0.425000012       1.13573360      -3.88081605E-03   1.13574016    
   2.25000000      0.475000024       1.15978670      -1.45613041E-03   1.15978765    
   2.25000000      0.524999976       1.15974545       1.04776630E-03   1.15974593    
   2.25000000      0.575000048       1.13561130       3.47189419E-03   1.13561654    
   2.25000000      0.625000000       1.08750677       5.65766729E-03   1.08752155    
   2.25000000      0.675000012       1.01566577       7.44826859E-03   1.01569307    
   2.25000000      0.725000024      0.920430601       8.68844986E-03  0.920471549    
   2.25000000      0.774999976      0.802237630       9.22560692E-03  0.802290678    
   2.25000000      0.825000048      0.661604881       8.91105179E-03  0.661664903    
   2.25000000      0.875000000      0.499130011       7.60004949E-03  0.499187857    
   2.25000000      0.925000012      0.315518141       5.15513867E-03  0.315560251    
   2.25000000      0.975000024      0.111627653       1.81634398E-03  0.111642428    
   2.25000000       1.00000000       0.00000000       0.00000000       0.00000000    
   2.41666698       0.00000000       0.00000000       0.00000000       0.00000000    
   2.41666698       2.50000004E-02  0.109215289      -2.01657834E-03  0.109233901    
   2.41666698       7.50000030E-02  0.308729112      -5.56256576E-03  0.308779240    
   2.41666698      0.125000000      0.488389045      -8.01512226E-03  0.488454789    
   2.41666698      0.175000012      0.647342563      -9.32622328E-03  0.647409737    
   2.41666698      0.224999994      0.784899950      -9.63900518E-03  0.784959137    
   2.41666698      0.275000006      0.900480807      -9.09967348E-03  0.900526762    
   2.41666698      0.324999988      0.993584514      -7.85791781E-03  0.993615627    
   2.41666698      0.375000000       1.06378961      -6.06618589E-03   1.06380689    
   2.41666698      0.425000012       1.11076701      -3.87986028E-03   1.11077380    
   2.41666698      0.475000024       1.13429189      -1.45630445E-03   1.13429284    
   2.41666698      0.524999976       1.13425136       1.04641763E-03   1.13425183    
   2.41666698      0.575000048       1.11064804       3.46956030E-03   1.11065352    
   2.41666698      0.625000000       1.06360006       5.65473316E-03   1.06361508    
   2.41666698      0.675000012      0.993336678       7.44497357E-03  0.993364573    
   2.41666698      0.725000024      0.900192261       8.68511479E-03  0.900234163    
   2.41666698      0.774999976      0.784592748       9.22263227E-03  0.784646988    