 TITLE = "TESTPLOT" 
 VARIABLES="x","y","fx","fy","magf" 
 ZONE T="1", I=          61 , J=          21
   0.00000000       0.00000000       1.00000000       0.00000000       1.00000000    
   0.00000000       2.50000004E-02   1.00000000       0.00000000       1.00000000    
   0.00000000       7.50000030E-02   1.00000000       0.00000000       1.00000000    
   0.00000000      0.125000000       1.00000000       0.00000000       1.00000000    
   0.00000000      0.175000012       1.00000000       0.00000000       1.00000000    
   0.00000000      0.224999994       1.00000000       0.00000000       1.00000000    
   0.00000000      0.275000006       1.00000000       0.00000000       1.00000000    
   0.00000000      0.324999988       1.00000000       0.00000000       1.00000000    
   0.00000000      0.375000000       1.00000000       0.00000000       1.00000000    
   0.00000000      0.425000012       1.00000000       0.00000000       1.00000000    
   0.00000000      0.475000024       1.00000000       0.00000000       1.00000000    
   0.00000000      0.524999976       1.00000000       0.00000000       1.00000000    
   0.00000000      0.575000048       1.00000000       0.00000000       1.00000000    
   0.00000000      0.625000000       1.00000000       0.00000000       1.00000000    
   0.00000000      0.675000012       1.00000000       0.00000000       1.00000000    
   0.00000000      0.725000024       1.00000000       0.00000000       1.00000000    
   0.00000000      0.774999976       1.00000000       0.00000000       1.00000000    
   0.00000000      0.825000048       1.00000000       0.00000000       1.00000000    
   0.00000000      0.875000000       1.00000000       0.00000000       1.00000000    
   0.00000000      0.925000012       1.00000000       0.00000000       1.00000000    
   0.00000000      0.975000024       1.00000000       0.00000000       1.00000000    
   0.00000000       1.00000000       1.00000000       0.00000000       1.00000000    
   8.33333358E-02   0.00000000      0.500000000       0.00000000      0.500000000    
   8.33333358E-02   2.50000004E-02  0.674328208       9.53296572E-02  0.681033254    
   8.33333358E-02   7.50000030E-02  0.870010793      0.227101043      0.899162769    
   8.33333358E-02  0.125000000      0.977140844      0.267848074       1.01318645    
   8.33333358E-02  0.175000012       1.03226733      0.259922028       1.06448829    
   8.33333358E-02  0.224999994       1.05718398      0.227985024       1.08148742    
   8.33333358E-02  0.275000006       1.06531131      0.186135650       1.08145022    
   8.33333358E-02  0.324999988       1.06500542      0.141940325       1.07442248    
   8.33333358E-02  0.375000000       1.06142521       9.89110172E-02   1.06602383    
   8.33333358E-02  0.425000012       1.05765152       5.80876321E-02   1.05924547    
   8.33333358E-02  0.475000024       1.05539072       1.90744009E-02   1.05556309    
   8.33333358E-02  0.524999976       1.05539596      -1.92622114E-02   1.05557168    
   8.33333358E-02  0.575000048       1.05766821      -5.82818463E-02   1.05927277    
   8.33333358E-02  0.625000000       1.06145430      -9.91185457E-02   1.06607211    
   8.33333358E-02  0.675000012       1.06504500     -0.142168254       1.07449186    
   8.33333358E-02  0.725000024       1.06535935     -0.186389476       1.08154130    
   8.33333358E-02  0.774999976       1.05724025     -0.228269085       1.08160233    
   8.33333358E-02  0.825000048       1.03232765     -0.260239363       1.06462431    
   8.33333358E-02  0.875000000      0.977199793     -0.268198282       1.01333594    
   8.33333358E-02  0.925000012      0.870060921     -0.227474123      0.899305522    
   8.33333358E-02  0.975000024      0.674360454      -9.55196843E-02  0.681091785    
   8.33333358E-02   1.00000000      0.500000000       0.00000000      0.500000000    
  0.250000000       0.00000000       0.00000000       0.00000000       0.00000000    
  0.250000000       2.50000004E-02  0.272629440       2.04235110E-02  0.273393363    
  0.250000000       7.50000030E-02  0.632942140       7.03998283E-02  0.636845231    
  0.250000000      0.125000000      0.866782069      0.123633496      0.875554919    
  0.250000000      0.175000012       1.01315880      0.160158902       1.02573955    
  0.250000000      0.224999994       1.09991169      0.174772590       1.11371052    
  0.250000000      0.275000006       1.14738631      0.168945134       1.15975761    
  0.250000000      0.324999988       1.17040706      0.146662280       1.17956030    
  0.250000000      0.375000000       1.17953682      0.112402707       1.18488038    
  0.250000000      0.425000012       1.18196154       7.02644438E-02   1.18404818    
  0.250000000      0.475000024       1.18212199       2.37298012E-02   1.18236017    
  0.250000000      0.524999976       1.18213451      -2.42101140E-02   1.18238235    
  0.250000000      0.575000048       1.18199921      -7.07466453E-02   1.18411458    
  0.250000000      0.625000000       1.17959929     -0.112887532       1.18498862    
  0.250000000      0.675000012       1.17048919     -0.147149324       1.17970240    
  0.250000000      0.725000024       1.14748144     -0.169432819       1.15992296    
  0.250000000      0.774999976       1.10001349     -0.175256461       1.11388719    
  0.250000000      0.825000048       1.01325953     -0.160632506       1.02591312    
  0.250000000      0.875000000      0.866873026     -0.124090433      0.875709593    
  0.250000000      0.925000012      0.633013904      -7.08302781E-02  0.636964321    
  0.250000000      0.975000024      0.272673309      -2.06304453E-02  0.273452640    
  0.250000000       1.00000000       0.00000000       0.00000000       0.00000000    
  0.416666687       0.00000000       0.00000000       0.00000000       0.00000000    
  0.416666687       2.50000004E-02  0.176067531       3.77619243E-03  0.176108018    
  0.416666687       7.50000030E-02  0.480733752       1.85201913E-02  0.481090367    
  0.416666687      0.125000000      0.727915764       4.23289724E-02  0.729145408    
  0.416666687      0.175000012      0.918166399       6.56868592E-02  0.920513093    
  0.416666687      0.224999994       1.05778015       8.19387212E-02   1.06094909    
  0.416666687      0.275000006       1.15552628       8.76934975E-02   1.15884912    
  0.416666687      0.324999988       1.22060061       8.22068751E-02   1.22336578    
  0.416666687      0.375000000       1.26136923       6.65893704E-02   1.26312566    
  0.416666687      0.425000012       1.28460169       4.31165360E-02   1.28532505    
  0.416666687      0.475000024       1.29501462       1.47218425E-02   1.29509830    
  0.416666687      0.524999976       1.29502404      -1.53423268E-02   1.29511499    
  0.416666687      0.575000048       1.28462863      -4.37309071E-02   1.28537273    
  0.416666687      0.625000000       1.26141083      -6.71916083E-02   1.26319909    
  0.416666687      0.675000012       1.22065043      -8.27907771E-02   1.22345483    
  0.416666687      0.725000024       1.15557599      -8.82534236E-02   1.15894115    
  0.416666687      0.774999976       1.05782199      -8.24702233E-02   1.06103194    
  0.416666687      0.825000048      0.918194413      -6.61866292E-02  0.920576811    
  0.416666687      0.875000000      0.727929831      -4.27953228E-02  0.729186714    
  0.416666687      0.925000012      0.480739057      -1.89503450E-02  0.481112421    
  0.416666687      0.975000024      0.176074594      -3.98156652E-03  0.176119611    
  0.416666687       1.00000000       0.00000000       0.00000000       0.00000000    
  0.583333373       0.00000000       0.00000000       0.00000000       0.00000000    
  0.583333373       2.50000004E-02  0.148249358      -1.99375689E-04  0.148249492    
  0.583333373       7.50000030E-02  0.416805983       2.67005363E-03  0.416814536    
  0.583333373      0.125000000      0.651540160       1.06725181E-02  0.651627541    
  0.583333373      0.175000012      0.849165618       2.06531715E-02  0.849416733    
  0.583333373      0.224999994       1.00927997       2.93798745E-02   1.00970745    
  0.583333373      0.275000006       1.13385737       3.44057977E-02   1.13437927    
  0.583333373      0.324999988       1.22639394       3.43858302E-02   1.22687590    
  0.583333373      0.375000000       1.29099894       2.91075818E-02   1.29132700    
  0.583333373      0.425000012       1.33154845       1.93388164E-02   1.33168888    
  0.583333373      0.475000024       1.35101783       6.57945685E-03   1.35103381    
  0.583333373      0.524999976       1.35101461      -7.22341612E-03   1.35103393    
  0.583333373      0.575000048       1.33153832      -1.99737269E-02   1.33168817    
  0.583333373      0.625000000       1.29097962      -2.97253914E-02   1.29132175    
  0.583333373      0.675000012       1.22636223      -3.49792093E-02   1.22686100    
  0.583333373      0.725000024       1.13380897      -3.49692218E-02   1.13434815    
  0.583333373      0.774999976       1.00921464      -2.99096387E-02   1.00965774    
  0.583333373      0.825000048      0.849085569      -2.11478081E-02  0.849348903    
  0.583333373      0.875000000      0.651456833      -1.11337258E-02  0.651551962    
  0.583333373      0.925000012      0.416739762      -3.09740473E-03  0.416751295    
  0.583333373      0.975000024      0.148226157      -5.33864932E-06  0.148226157    
  0.583333373       1.00000000       0.00000000       0.00000000       0.00000000    
  0.750000000       0.00000000       0.00000000       0.00000000       0.00000000    
  0.750000000       2.50000004E-02  0.137748927      -1.41907390E-03  0.137756228    
  0.750000000       7.50000030E-02  0.389090478      -2.73399893E-03  0.389100105    
  0.750000000      0.125000000      0.613562822      -1.30828389E-03  0.613564193    
  0.750000000      0.175000012      0.808958650       1.89216284E-03  0.808960855    
  0.750000000      0.224999994      0.974024117       5.53259766E-03  0.974039853    
  0.750000000      0.275000006       1.10859609       8.39166902E-03   1.10862792    
  0.750000000      0.324999988       1.21346617       9.59889218E-03   1.21350408    
  0.750000000      0.375000000       1.29004884       8.77111778E-03   1.29007864    
  0.750000000      0.425000012       1.33994031       6.03803899E-03   1.33995390    
  0.750000000      0.475000024       1.36449194       1.96796213E-03   1.36449337    
  0.750000000      0.524999976       1.36447442      -2.57896306E-03   1.36447680    
  0.750000000      0.575000048       1.33988714      -6.64079189E-03   1.33990359    
  0.750000000      0.625000000       1.28996217      -9.35778767E-03   1.28999615    
  0.750000000      0.675000012       1.21334648      -1.01631423E-02   1.21338904    
  0.750000000      0.725000024       1.10844696      -8.92918464E-03   1.10848296    
  0.750000000      0.774999976      0.973852396      -6.04079012E-03  0.973871112    
  0.750000000      0.825000048      0.808778286      -2.37088953E-03  0.808781743    
  0.750000000      0.875000000      0.613394558       8.57003441E-04  0.613395154    
  0.750000000      0.925000012      0.388965070       2.31153145E-03  0.388971955    
  0.750000000      0.975000024      0.137701929       1.21568562E-03  0.137707293    
  0.750000000       1.00000000       0.00000000       0.00000000       0.00000000    
  0.916666687       0.00000000       0.00000000       0.00000000       0.00000000    
  0.916666687       2.50000004E-02  0.132687524      -1.83094549E-03  0.132700160    
  0.916666687       7.50000030E-02  0.374889016      -4.64722142E-03  0.374917805    
  0.916666687      0.125000000      0.592469335      -5.76384086E-03  0.592497408    
  0.916666687      0.175000012      0.784043849      -5.43565769E-03  0.784062684    
  0.916666687      0.224999994      0.948523879      -4.22300305E-03  0.948533297    
  0.916666687      0.275000006       1.08524990      -2.69826036E-03   1.08525324    
  0.916666687      0.324999988       1.19402552      -1.33891113E-03   1.19402623    
  0.916666687      0.375000000       1.27503252      -4.43551515E-04   1.27503264    
  0.916666687      0.425000012       1.32866693      -9.30936803E-05   1.32866693    
  0.916666687      0.475000024       1.35534072      -1.65089528E-04   1.35534072    
  0.916666687      0.524999976       1.35531092      -3.93275608E-04   1.35531092    
  0.916666687      0.575000048       1.32857800      -4.59166302E-04   1.32857811    
  0.916666687      0.625000000       1.27488899      -9.66449879E-05   1.27488899    
  0.916666687      0.675000012       1.19383311       8.15673964E-04   1.19383347    
  0.916666687      0.725000024       1.08501959       2.19482020E-03   1.08502185    
  0.916666687      0.774999976      0.948268890       3.74076096E-03  0.948276281    
  0.916666687      0.825000048      0.783786356       4.97480715E-03  0.783802152    
  0.916666687      0.875000000      0.592237592       5.32301795E-03  0.592261553    
  0.916666687      0.925000012      0.374720335       4.22902592E-03  0.374744177    
  0.916666687      0.975000024      0.132623881       1.62843207E-03  0.132633880    
  0.916666687       1.00000000       0.00000000       0.00000000       0.00000000    
   1.08333337       0.00000000       0.00000000       0.00000000       0.00000000    
   1.08333337       2.50000004E-02  0.129450649      -1.96680450E-03  0.129465595    
   1.08333337       7.50000030E-02  0.365594685      -5.30181453E-03  0.365633100    
   1.08333337      0.125000000      0.578019977      -7.34200235E-03  0.578066587    
   1.08333337      0.175000012      0.765733600      -8.11697356E-03  0.765776575    
   1.08333337      0.224999994      0.927835107      -7.90218916E-03  0.927868783    
   1.08333337      0.275000006       1.06359661      -6.99510332E-03   1.06361961    
   1.08333337      0.324999988       1.17250943      -5.67367207E-03   1.17252314    
   1.08333337      0.375000000       1.25428104      -4.15857974E-03   1.25428796    
   1.08333337      0.425000012       1.30879176      -2.59049796E-03   1.30879426    
   1.08333337      0.475000024       1.33602273      -1.02949003E-03   1.33602309    
   1.08333337      0.524999976       1.33598435       5.23065042E-04   1.33598447    
   1.08333337      0.575000048       1.30867839       2.08750158E-03   1.30868006    
   1.08333337      0.625000000       1.25409806       3.66277248E-03   1.25410342    
   1.08333337      0.675000012       1.17226720       5.18807955E-03   1.17227864    
   1.08333337      0.725000024       1.06331015       6.52217818E-03   1.06333017    
   1.08333337      0.774999976      0.927524328       7.44322548E-03  0.927554190    
   1.08333337      0.825000048      0.765425026       7.67187029E-03  0.765463471    
   1.08333337      0.875000000      0.577747226       6.91016577E-03  0.577788532    
   1.08333337      0.925000012      0.365398616       4.88736527E-03  0.365431309    
   1.08333337      0.975000024      0.129376709       1.76507363E-03  0.129388750    
   1.08333337       1.00000000       0.00000000       0.00000000       0.00000000    
   1.25000000       0.00000000       0.00000000       0.00000000       0.00000000    
   1.25000000       2.50000004E-02  0.126800090      -2.00731680E-03  0.126815975    
   1.25000000       7.50000030E-02  0.357988656      -5.50677814E-03  0.358031005    
   1.25000000      0.125000000      0.565987229      -7.85554480E-03  0.566041768    
   1.25000000      0.175000012      0.749971628      -9.01732035E-03  0.750025809    
   1.25000000      0.224999994      0.909151077      -9.17084701E-03  0.909197330    
   1.25000000      0.275000006       1.04281664      -8.50993488E-03   1.04285133    
   1.25000000      0.324999988       1.15037930      -7.22904876E-03   1.15040195    
   1.25000000      0.375000000       1.23139000      -5.50824264E-03   1.23140228    
   1.25000000      0.425000012       1.28553712      -3.50275403E-03   1.28554189    
   1.25000000      0.475000024       1.31263232      -1.34020671E-03   1.31263304    
   1.25000000      0.524999976       1.31258893       8.73060839E-04   1.31258917    
   1.25000000      0.575000048       1.28540874       3.03808693E-03   1.28541231    
   1.25000000      0.625000000       1.23118389       5.04781771E-03   1.23119426    
   1.25000000      0.675000012       1.15010810       6.77449163E-03   1.15012801    
   1.25000000      0.725000024       1.04249763       8.06227513E-03   1.04252875    
   1.25000000      0.774999976      0.908807755       8.73044506E-03  0.908849716    
   1.25000000      0.825000048      0.749634027       8.58452730E-03  0.749683142    
   1.25000000      0.875000000      0.565691710       7.43059628E-03  0.565740526    
   1.25000000      0.925000012      0.357778072       5.09514613E-03  0.357814342    
   1.25000000      0.975000024      0.126721293       1.80617848E-03  0.126734167    
   1.25000000       1.00000000       0.00000000       0.00000000       0.00000000    
   1.41666675       0.00000000       0.00000000       0.00000000       0.00000000    
   1.41666675       2.50000004E-02  0.124317616      -2.01701210E-03  0.124333978    
   1.41666675       7.50000030E-02  0.350911200      -5.56050288E-03  0.350955248    
   1.41666675      0.125000000      0.554756045      -7.99903274E-03  0.554813743    
   1.41666675      0.175000012      0.735100746      -9.28086787E-03  0.735159338    
   1.41666675      0.224999994      0.891211808      -9.55596194E-03  0.891263008    
   1.41666675      0.275000006       1.02240777      -8.98293033E-03   1.02244723    
   1.41666675      0.324999988       1.12809181      -7.72486208E-03   1.12811828    
   1.41666675      0.375000000       1.20777321      -5.94428414E-03   1.20778787    
   1.41666675      0.425000012       1.26108217      -3.79814906E-03   1.26108789    
   1.41666675      0.475000024       1.28777349      -1.43637788E-03   1.28777432    
   1.41666675      0.524999976       1.28772712       9.96628776E-04   1.28772748    
   1.41666675      0.575000048       1.26094580       3.35913338E-03   1.26095033    
   1.41666675      0.625000000       1.20755458       5.50740771E-03   1.20756710    
   1.41666675      0.675000012       1.12780476       7.29090534E-03   1.12782836    
   1.41666675      0.725000024       1.02207267       8.55207536E-03   1.02210844    
   1.41666675      0.774999976      0.890852988       9.12844576E-03  0.890899777    
   1.41666675      0.825000048      0.734750271       8.85677896E-03  0.734803677    
   1.41666675      0.875000000      0.554450750       7.57886749E-03  0.554502547    
   1.41666675      0.925000012      0.350694507       5.15075075E-03  0.350732327    
   1.41666675      0.975000024      0.124236420       1.81623525E-03  0.124249697    
   1.41666675       1.00000000       0.00000000       0.00000000       0.00000000    
   1.58333349       0.00000000       0.00000000       0.00000000       0.00000000    
   1.58333349       2.50000004E-02  0.121870689      -2.01806542E-03  0.121887401    
   1.58333349       7.50000030E-02  0.343970954      -5.56951016E-03  0.344016045    
   1.58333349      0.125000000      0.543754458      -8.02843552E-03  0.543813705    
   1.58333349      0.175000012      0.720504165      -9.34140850E-03  0.720564723    
   1.58333349      0.224999994      0.873518288      -9.65082832E-03  0.873571634    
   1.58333349      0.275000006       1.00213814      -9.10508446E-03   1.00217950    
   1.58333349      0.324999988       1.10577619      -7.85704888E-03   1.10580409    
   1.58333349      0.375000000       1.18393946      -6.06215652E-03   1.18395495    
   1.58333349      0.425000012       1.23624814      -3.87724256E-03   1.23625422    
   1.58333349      0.475000024       1.26244318      -1.45891996E-03   1.26244402    
   1.58333349      0.524999976       1.26239586       1.03722978E-03   1.26239634    
   1.58333349      0.575000048       1.23610902       3.45578999E-03   1.23611391    
   1.58333349      0.625000000       1.18371654       5.64070605E-03   1.18373001    
   1.58333349      0.675000012       1.10548353       7.43565476E-03   1.10550857    
   1.58333349      0.725000024       1.00179732       8.68406147E-03   1.00183499    
   1.58333349      0.774999976      0.873155713       9.23007168E-03  0.873204529    
   1.58333349      0.825000048      0.720151544       8.92119296E-03  0.720206797    
   1.58333349      0.875000000      0.543448687       7.61014596E-03  0.543501973    
   1.58333349      0.925000012      0.343754768       5.16042439E-03  0.343793511    
   1.58333349      0.975000024      0.121789895       1.81741116E-03  0.121803455    
   1.58333349       1.00000000       0.00000000       0.00000000       0.00000000    
   1.75000000       0.00000000       0.00000000       0.00000000       0.00000000    
   1.75000000       2.50000004E-02  0.119424120      -2.01721070E-03  0.119441152    
   1.75000000       7.50000030E-02  0.337052405      -5.56786824E-03  0.337098390    
   1.75000000      0.125000000      0.532801867      -8.02826881E-03  0.532862365    
   1.75000000      0.175000012      0.705975652      -9.34548210E-03  0.706037521    
   1.75000000      0.224999994      0.855892897      -9.66146961E-03  0.855947435    
   1.75000000      0.275000006      0.981912255      -9.12232045E-03  0.981954634    
   1.75000000      0.324999988       1.08346057      -7.87812099E-03   1.08348918    
   1.75000000      0.375000000       1.16005325      -6.08230103E-03   1.16006911    
   1.75000000      0.425000012       1.21131420      -3.89046641E-03   1.21132040    
   1.75000000      0.475000024       1.23698604      -1.46042998E-03   1.23698688    
   1.75000000      0.524999976       1.23693931       1.04855048E-03   1.23693967    
   1.75000000      0.575000048       1.21117628       3.47777130E-03   1.21118116    
   1.75000000      0.625000000       1.15983224       5.66907320E-03   1.15984607    
   1.75000000      0.675000012       1.08317089       7.46419700E-03   1.08319652    
   1.75000000      0.725000024      0.981574893       8.70713964E-03  0.981613517    
   1.75000000      0.774999976      0.855534554       9.24499147E-03  0.855584502    
   1.75000000      0.825000048      0.705627918       8.92814249E-03  0.705684423    
   1.75000000      0.875000000      0.532500982       7.61154201E-03  0.532555401    
   1.75000000      0.925000012      0.336840689       5.15959552E-03  0.336880207    
   1.75000000      0.975000024      0.119345799       1.81686471E-03  0.119359627    
   1.75000000       1.00000000       0.00000000       0.00000000       0.00000000    
   1.91666675       0.00000000       0.00000000       0.00000000       0.00000000    
   1.91666675       2.50000004E-02  0.116972573      -2.01653573E-03  0.116989948    
   1.91666675       7.50000030E-02  0.330128789      -5.56488708E-03  0.330175668    
   1.91666675      0.125000000      0.521850348      -8.02251603E-03  0.521912038    
   1.91666675      0.175000012      0.691455841      -9.33828484E-03  0.691518903    
   1.91666675      0.224999994      0.838280320      -9.65404790E-03  0.838335931    
   1.91666675      0.275000006      0.961698174      -9.11559165E-03  0.961741388    
   1.91666675      0.324999988       1.06115031      -7.87254423E-03   1.06117952    
   1.91666675      0.375000000       1.13616228      -6.07765047E-03   1.13617849    
   1.91666675      0.425000012       1.18636608      -3.88681237E-03   1.18637252    
   1.91666675      0.475000024       1.21150839      -1.45776151E-03   1.21150923    
   1.91666675      0.524999976       1.21146297       1.05083571E-03   1.21146345    
   1.91666675      0.575000048       1.18623137       3.47941369E-03   1.18623650    
   1.91666675      0.625000000       1.13594627       5.66887576E-03   1.13596046    
   1.91666675      0.675000012       1.06086767       7.46184960E-03   1.06089389    
   1.91666675      0.725000024      0.961368978       8.70289002E-03  0.961408377    
   1.91666675      0.774999976      0.837930441       9.23923682E-03  0.837981343    
   1.91666675      0.825000048      0.691116273       8.92204978E-03  0.691173851    
   1.91666675      0.875000000      0.521556497       7.60650076E-03  0.521611929    
   1.91666675      0.925000012      0.329922140       5.15662879E-03  0.329962432    
   1.91666675      0.975000024      0.116896048       1.81599893E-03  0.116910152    
   1.91666675       1.00000000       0.00000000       0.00000000       0.00000000    
   2.08333349       0.00000000       0.00000000       0.00000000       0.00000000    
   2.08333349       2.50000004E-02  0.114517160      -2.01587332E-03  0.114534900    
   2.08333349       7.50000030E-02  0.323197663      -5.56275249E-03  0.323245525    
   2.08333349      0.125000000      0.510891199      -8.01863242E-03  0.510954082    
   2.08333349      0.175000012      0.676931024      -9.33264196E-03  0.676995397    
   2.08333349      0.224999994      0.820666671      -9.64722596E-03  0.820723355    
   2.08333349      0.275000006      0.941486955      -9.10856575E-03  0.941531003    
   2.08333349      0.324999988       1.03884435      -7.86625966E-03   1.03887415    
   2.08333349      0.375000000       1.11227596      -6.07275916E-03   1.11229253    
   2.08333349      0.425000012       1.16142225      -3.88356764E-03   1.16142881    
   2.08333349      0.475000024       1.18603444      -1.45641388E-03   1.18603539    
   2.08333349      0.524999976       1.18599033       1.05002150E-03   1.18599081    
   2.08333349      0.575000048       1.16129065       3.47659504E-03   1.16129589    
   2.08333349      0.625000000       1.11206603       5.66435466E-03   1.11208045    
   2.08333349      0.675000012       1.03856897       7.45604932E-03   1.03859580    
   2.08333349      0.725000024      0.941165805       8.69649649E-03  0.941205978    
   2.08333349      0.774999976      0.820325673       9.23309289E-03  0.820377648    
   2.08333349      0.825000048      0.676600337       8.91691726E-03  0.676659107    
   2.08333349      0.875000000      0.510605216       7.60310981E-03  0.510661840    
   2.08333349      0.925000012      0.322996497       5.15530538E-03  0.323037624    
   2.08333349      0.975000024      0.114442945       1.81582244E-03  0.114457346    
   2.08333349       1.00000000       0.00000000       0.00000000       0.00000000    
   2.25000000       0.00000000       0.00000000       0.00000000       0.00000000    
   2.25000000       2.50000004E-02  0.112059891      -2.01571500E-03  0.112078018    
   2.25000000       7.50000030E-02  0.316261947      -5.56195993E-03  0.316310853    
   2.25000000      0.125000000      0.499926835      -8.01663660E-03  0.499991089    
   2.25000000      0.175000012      0.662401795      -9.32922959E-03  0.662467480    
   2.25000000      0.224999994      0.803050399      -9.64284781E-03  0.803108275    
   2.25000000      0.275000006      0.921275139      -9.10389610E-03  0.921320140    
   2.25000000      0.324999988       1.01654029      -7.86197744E-03   1.01657069    
   2.25000000      0.375000000       1.08839285      -6.06942736E-03   1.08840978    
   2.25000000      0.425000012       1.13648212      -3.88150942E-03   1.13648880    
   2.25000000      0.475000024       1.16056538      -1.45588897E-03   1.16056633    
   2.25000000      0.524999976       1.16052222       1.04896165E-03   1.16052270    
   2.25000000      0.575000048       1.13635445       3.47387465E-03   1.13635969    
   2.25000000      0.625000000       1.08818865       5.66016138E-03   1.08820343    
   2.25000000      0.675000012       1.01627183       7.45089818E-03   1.01629913    
   2.25000000      0.725000024      0.920962274       8.69115442E-03  0.921003282    
   2.25000000      0.774999976      0.802718401       9.22846794E-03  0.802771449    
   2.25000000      0.825000048      0.662079930       8.91338661E-03  0.662139952    
   2.25000000      0.875000000      0.499648899       7.60064228E-03  0.499706715    
   2.25000000      0.925000012      0.316066802       5.15381526E-03  0.316108823    
   2.25000000      0.975000024      0.111988164       1.81531371E-03  0.112002872    
   2.25000000       1.00000000       0.00000000       0.00000000       0.00000000    
   2.41666698       0.00000000       0.00000000       0.00000000       0.00000000    
   2.41666698       2.50000004E-02  0.109601520      -2.01583747E-03  0.109620057    
   2.41666698       7.50000030E-02  0.309324354      -5.56206284E-03  0.309374362    
   2.41666698      0.125000000      0.488960475      -8.01649410E-03  0.489026189    
   2.41666698      0.175000012      0.647870898      -9.32887755E-03  0.647938073    
   2.41666698      0.224999994      0.785433173      -9.64242965E-03  0.785492361    
   2.41666698      0.275000006      0.901063204      -9.10332147E-03  0.901109219    
   2.41666698      0.324999988      0.994237185      -7.86081888E-03  0.994268239    
   2.41666698      0.375000000       1.06451249      -6.06822548E-03   1.06452978    
   2.41666698      0.425000012       1.11154580      -3.88094829E-03   1.11155260    
   2.41666698      0.475000024       1.13510036      -1.45583565E-03   1.13510132    
   2.41666698      0.524999976       1.13505816       1.04835827E-03   1.13505864    
   2.41666698      0.575000048       1.11142159       3.47281713E-03   1.11142707    
   2.41666698      0.625000000       1.06431365       5.65924775E-03   1.06432867    
   2.41666698      0.675000012      0.993975878       7.45010003E-03  0.994003773    
   2.41666698      0.725000024      0.900758862       8.69025104E-03  0.900800824    
   2.41666698      0.774999976      0.785110474       9.22741741E-03  0.785164654    