 TITLE = "TESTPLOT" 
 VARIABLES="x","y","fx","fy","magf" 
 ZONE T="1", I=          61 , J=          21
   0.00000000       0.00000000       1.00000000       0.00000000       1.00000000    
   0.00000000       2.50000004E-02   1.00000000       0.00000000       1.00000000    
   0.00000000       7.50000030E-02   1.00000000       0.00000000       1.00000000    
   0.00000000      0.125000000       1.00000000       0.00000000       1.00000000    
   0.00000000      0.175000012       1.00000000       0.00000000       1.00000000    
   0.00000000      0.224999994       1.00000000       0.00000000       1.00000000    
   0.00000000      0.275000006       1.00000000       0.00000000       1.00000000    
   0.00000000      0.324999988       1.00000000       0.00000000       1.00000000    
   0.00000000      0.375000000       1.00000000       0.00000000       1.00000000    
   0.00000000      0.425000012       1.00000000       0.00000000       1.00000000    
   0.00000000      0.475000024       1.00000000       0.00000000       1.00000000    
   0.00000000      0.524999976       1.00000000       0.00000000       1.00000000    
   0.00000000      0.575000048       1.00000000       0.00000000       1.00000000    
   0.00000000      0.625000000       1.00000000       0.00000000       1.00000000    
   0.00000000      0.675000012       1.00000000       0.00000000       1.00000000    
   0.00000000      0.725000024       1.00000000       0.00000000       1.00000000    
   0.00000000      0.774999976       1.00000000       0.00000000       1.00000000    
   0.00000000      0.825000048       1.00000000       0.00000000       1.00000000    
   0.00000000      0.875000000       1.00000000       0.00000000       1.00000000    
   0.00000000      0.925000012       1.00000000       0.00000000       1.00000000    
   0.00000000      0.975000024       1.00000000       0.00000000       1.00000000    
   0.00000000       1.00000000       1.00000000       0.00000000       1.00000000    
   8.33333358E-02   0.00000000      0.500000000       0.00000000      0.500000000    
   8.33333358E-02   2.50000004E-02  0.674181581       9.53262597E-02  0.680887580    
   8.33333358E-02   7.50000030E-02  0.869998574      0.227047011      0.899137259    
   8.33333358E-02  0.125000000      0.977313042      0.267644376       1.01329875    
   8.33333358E-02  0.175000012       1.03249598      0.259496570       1.06460619    
   8.33333358E-02  0.224999994       1.05732059      0.227348417       1.08148706    
   8.33333358E-02  0.275000006       1.06525922      0.185372159       1.08126771    
   8.33333358E-02  0.324999988       1.06473696      0.141171426       1.07405508    
   8.33333358E-02  0.375000000       1.06096458       9.82592106E-02   1.06550491    
   8.33333358E-02  0.425000012       1.05705273       5.76522052E-02   1.05862379    
   8.33333358E-02  0.475000024       1.05472076       1.89182982E-02   1.05489039    
   8.33333358E-02  0.524999976       1.05472612      -1.91177018E-02   1.05489933    
   8.33333358E-02  0.575000048       1.05706930      -5.78583330E-02   1.05865157    
   8.33333358E-02  0.625000000       1.06099224      -9.84786451E-02   1.06555271    
   8.33333358E-02  0.675000012       1.06477499     -0.141410530       1.07412410    
   8.33333358E-02  0.725000024       1.06530654     -0.185636684       1.08135986    
   8.33333358E-02  0.774999976       1.05737543     -0.227643043       1.08160257    
   8.33333358E-02  0.825000048       1.03255415     -0.259823978       1.06474245    
   8.33333358E-02  0.875000000      0.977369905     -0.268003821       1.01344860    
   8.33333358E-02  0.925000012      0.870047390     -0.227428526      0.899280906    
   8.33333358E-02  0.975000024      0.674212992      -9.55203846E-02  0.680945873    
   8.33333358E-02   1.00000000      0.500000000       0.00000000      0.500000000    
  0.250000000       0.00000000       0.00000000       0.00000000       0.00000000    
  0.250000000       2.50000004E-02  0.272874802       2.02146992E-02  0.273622543    
  0.250000000       7.50000030E-02  0.634559274       6.94387108E-02  0.638347268    
  0.250000000      0.125000000      0.869432867      0.121385813      0.877865613    
  0.250000000      0.175000012       1.01592147      0.156425625       1.02789366    
  0.250000000      0.224999994       1.10182464      0.169753909       1.11482453    
  0.250000000      0.275000006       1.14775753      0.163189858       1.15930080    
  0.250000000      0.324999988       1.16893554      0.140942514       1.17740178    
  0.250000000      0.375000000       1.17631054      0.107552543       1.18121719    
  0.250000000      0.425000012       1.17738509       6.70173913E-02   1.17929089    
  0.250000000      0.475000024       1.17681623       2.25844197E-02   1.17703295    
  0.250000000      0.524999976       1.17682838      -2.30776463E-02   1.17705464    
  0.250000000      0.575000048       1.17742181      -6.75124303E-02   1.17935586    
  0.250000000      0.625000000       1.17637038     -0.108050108       1.18132222    
  0.250000000      0.675000012       1.16901398     -0.141441852       1.17753959    
  0.250000000      0.725000024       1.14784932     -0.163688675       1.15946198    
  0.250000000      0.774999976       1.10192275     -0.170248002       1.11499691    
  0.250000000      0.825000048       1.01601720     -0.156909108       1.02806199    
  0.250000000      0.875000000      0.869518280     -0.121852040      0.878014803    
  0.250000000      0.925000012      0.634626508      -6.98774084E-02  0.638461947    
  0.250000000      0.975000024      0.272916913      -2.04254352E-02  0.273680180    
  0.250000000       1.00000000       0.00000000       0.00000000       0.00000000    
  0.416666687       0.00000000       0.00000000       0.00000000       0.00000000    
  0.416666687       2.50000004E-02  0.177925691       3.40678939E-03  0.177958310    
  0.416666687       7.50000030E-02  0.486864507       1.68689266E-02  0.487156659    
  0.416666687      0.125000000      0.736716390       3.85615341E-02  0.737724900    
  0.416666687      0.175000012      0.926997423       5.95358238E-02  0.928907275    
  0.416666687      0.224999994       1.06400287       7.37558827E-02   1.06655610    
  0.416666687      0.275000006       1.15718293       7.83647150E-02   1.15983331    
  0.416666687      0.324999988       1.21676159       7.29629397E-02   1.21894729    
  0.416666687      0.375000000       1.25221121       5.87613210E-02   1.25358915    
  0.416666687      0.425000012       1.27128685       3.78823355E-02   1.27185118    
  0.416666687      0.475000024       1.27943122       1.28870402E-02   1.27949607    
  0.416666687      0.524999976       1.27944148      -1.34926802E-02   1.27951264    
  0.416666687      0.575000048       1.27131605      -3.84835266E-02   1.27189839    
  0.416666687      0.625000000       1.25225639      -5.93531393E-02   1.25366223    
  0.416666687      0.675000012       1.21681464      -7.35404342E-02   1.21903491    
  0.416666687      0.725000024       1.15723503      -7.89225921E-02   1.15992308    
  0.416666687      0.774999976       1.06404519      -7.42888004E-02   1.06663537    
  0.416666687      0.825000048      0.927024364      -6.00396581E-02  0.928966582    
  0.416666687      0.875000000      0.736726880      -3.90344933E-02  0.737760246    
  0.416666687      0.925000012      0.486864746      -1.73071865E-02  0.487172276    
  0.416666687      0.975000024      0.177930117      -3.61634721E-03  0.177966863    
  0.416666687       1.00000000       0.00000000       0.00000000       0.00000000    
  0.583333373       0.00000000       0.00000000       0.00000000       0.00000000    
  0.583333373       2.50000004E-02  0.152229160      -5.60507993E-04  0.152230203    
  0.583333373       7.50000030E-02  0.428572237       1.06821849E-03  0.428573579    
  0.583333373      0.125000000      0.667876065       7.03306030E-03  0.667913139    
  0.583333373      0.175000012      0.865385532       1.47176478E-02  0.865510702    
  0.583333373      0.224999994       1.02076221       2.14791931E-02   1.02098811    
  0.583333373      0.275000006       1.13712883       2.53859665E-02   1.13741219    
  0.583333373      0.324999988       1.21975148       2.54345909E-02   1.22001660    
  0.583333373      0.375000000       1.27470207       2.15197429E-02   1.27488375    
  0.583333373      0.425000012       1.30766439       1.42661314E-02   1.30774224    
  0.583333373      0.475000024       1.32297802       4.81207157E-03   1.32298672    
  0.583333373      0.524999976       1.32298017      -5.40588517E-03   1.32299125    
  0.583333373      0.575000048       1.30766857      -1.48543287E-02   1.30775297    
  0.583333373      0.625000000       1.27470398      -2.20966842E-02   1.27489543    
  0.583333373      0.675000012       1.21974468      -2.59945523E-02   1.22002161    
  0.583333373      0.725000024       1.13710594      -2.59243995E-02   1.13740146    
  0.583333373      0.774999976       1.02071834      -2.19931826E-02   1.02095532    
  0.583333373      0.825000048      0.865322590      -1.52054802E-02  0.865456164    
  0.583333373      0.875000000      0.667802930      -7.49447104E-03  0.667845011    
  0.583333373      0.925000012      0.428508759      -1.50033075E-03  0.428511381    
  0.583333373      0.975000024      0.152205154       3.52574425E-04  0.152205557    
  0.583333373       1.00000000       0.00000000       0.00000000       0.00000000    
  0.750000000       0.00000000       0.00000000       0.00000000       0.00000000    
  0.750000000       2.50000004E-02  0.143428266      -1.66143139E-03  0.143437892    
  0.750000000       7.50000030E-02  0.405415118      -3.80746974E-03  0.405432999    
  0.750000000      0.125000000      0.636047244      -3.75765748E-03  0.636058331    
  0.750000000      0.175000012      0.831260562      -2.13152915E-03  0.831263304    
  0.750000000      0.224999994      0.989878118       1.37087132E-04  0.989878118    
  0.750000000      0.275000006       1.11324024       2.19104392E-03   1.11324239    
  0.750000000      0.324999988       1.20450687       3.41194263E-03   1.20451176    
  0.750000000      0.375000000       1.26777971       3.50675709E-03   1.26778460    
  0.750000000      0.425000012       1.30717278       2.51461100E-03   1.30717516    
  0.750000000      0.475000024       1.32596266       7.50878302E-04   1.32596290    
  0.750000000      0.524999976       1.32595634      -1.28933229E-03   1.32595694    
  0.750000000      0.575000048       1.30715227      -3.04876524E-03   1.30715585    
  0.750000000      0.625000000       1.26774085      -4.03250381E-03   1.26774728    
  0.750000000      0.675000012       1.20444512      -3.92576028E-03   1.20445144    
  0.750000000      0.725000024       1.11315274      -2.69008148E-03   1.11315596    
  0.750000000      0.774999976      0.989765167      -6.19573519E-04  0.989765346    
  0.750000000      0.825000048      0.831129611       1.66639127E-03  0.831131279    
  0.750000000      0.875000000      0.635914266       3.31001496E-03  0.635922909    
  0.750000000      0.925000012      0.405308664       3.38155124E-03  0.405322760    
  0.750000000      0.975000024      0.143386573       1.45498104E-03  0.143393964    
  0.750000000       1.00000000       0.00000000       0.00000000       0.00000000    
  0.916666687       0.00000000       0.00000000       0.00000000       0.00000000    
  0.916666687       2.50000004E-02  0.139257506      -1.94826012E-03  0.139271140    
  0.916666687       7.50000030E-02  0.393789351      -5.16538788E-03  0.393823236    
  0.916666687      0.125000000      0.618556499      -6.95874635E-03  0.618595660    
  0.916666687      0.175000012      0.809992909      -7.43013667E-03  0.810027003    
  0.916666687      0.224999994      0.967040539      -6.93716621E-03  0.967065394    
  0.916666687      0.275000006       1.09073186      -5.85584203E-03   1.09074759    
  0.916666687      0.324999988       1.18359780      -4.51934570E-03   1.18360639    
  0.916666687      0.375000000       1.24897206      -3.16684367E-03   1.24897599    
  0.916666687      0.425000012       1.29023683      -1.91939739E-03   1.29023826    
  0.916666687      0.475000024       1.31010950      -7.86743476E-04   1.31010973    
  0.916666687      0.524999976       1.31009769       2.99174804E-04   1.31009769    
  0.916666687      0.575000048       1.29019964       1.43420952E-03   1.29020047    
  0.916666687      0.625000000       1.24890661       2.68634642E-03   1.24890947    
  0.916666687      0.675000012       1.18350112       4.04547760E-03   1.18350804    
  0.916666687      0.725000024       1.09060347       5.39006200E-03   1.09061682    
  0.916666687      0.774999976      0.966884911       6.48053689E-03  0.966906667    
  0.916666687      0.825000048      0.809821069       6.98331138E-03  0.809851170    
  0.916666687      0.875000000      0.618389010       6.52203429E-03  0.618423402    
  0.916666687      0.925000012      0.393658519       4.74431785E-03  0.393687099    
  0.916666687      0.975000024      0.139205933       1.74299174E-03  0.139216840    
  0.916666687       1.00000000       0.00000000       0.00000000       0.00000000    
   1.08333337       0.00000000       0.00000000       0.00000000       0.00000000    
   1.08333337       2.50000004E-02  0.136227310      -2.00203480E-03  0.136242017    
   1.08333337       7.50000030E-02  0.385378480      -5.45155117E-03  0.385417014    
   1.08333337      0.125000000      0.605506063      -7.69514730E-03  0.605554938    
   1.08333337      0.175000012      0.793180823      -8.73465836E-03  0.793228924    
   1.08333337      0.224999994      0.947462797      -8.77765752E-03  0.947503448    
   1.08333337      0.275000006       1.06937957      -8.04573577E-03   1.06940985    
   1.08333337      0.324999988       1.16131151      -6.75590429E-03   1.16133118    
   1.08333337      0.375000000       1.22634172      -5.09842485E-03   1.22635233    
   1.08333337      0.425000012       1.26757419      -3.22290789E-03   1.26757824    
   1.08333337      0.475000024       1.28749454      -1.23723701E-03   1.28749514    
   1.08333337      0.524999976       1.28747952       7.81796873E-04   1.28747976    
   1.08333337      0.575000048       1.26752818       2.76867812E-03   1.26753116    
   1.08333337      0.625000000       1.22626257       4.64639347E-03   1.22627139    
   1.08333337      0.675000012       1.16119695       6.30705198E-03   1.16121411    
   1.08333337      0.725000024       1.06923079       7.60070561E-03   1.06925786    
   1.08333337      0.774999976      0.947286010       8.33689794E-03  0.947322667    
   1.08333337      0.825000048      0.792989492       8.29864666E-03  0.793032885    
   1.08333337      0.875000000      0.605322719       7.26475194E-03  0.605366290    
   1.08333337      0.925000012      0.385236859       5.03328396E-03  0.385269731    
   1.08333337      0.975000024      0.136171311       1.79740309E-03  0.136183172    
   1.08333337       1.00000000       0.00000000       0.00000000       0.00000000    
   1.25000000       0.00000000       0.00000000       0.00000000       0.00000000    
   1.25000000       2.50000004E-02  0.133380264      -2.00203410E-03  0.133395284    
   1.25000000       7.50000030E-02  0.377634078      -5.47154434E-03  0.377673715    
   1.25000000      0.125000000      0.593512893      -7.77939241E-03  0.593563855    
   1.25000000      0.175000012      0.777561069      -8.92291311E-03  0.777612269    
   1.25000000      0.224999994      0.928880811      -9.08339676E-03  0.928925216    
   1.25000000      0.275000006       1.04851961      -8.44540633E-03   1.04855359    
   1.25000000      0.324999988       1.13881826      -7.19142891E-03   1.13884103    
   1.25000000      0.375000000       1.20276916      -5.49102481E-03   1.20278168    
   1.25000000      0.425000012       1.24336553      -3.49369552E-03   1.24337041    
   1.25000000      0.475000024       1.26299584      -1.32847088E-03   1.26299655    
   1.25000000      0.524999976       1.26297927       8.90883501E-04   1.26297963    
   1.25000000      0.575000048       1.24331570       3.05635156E-03   1.24331939    
   1.25000000      0.625000000       1.20268440       5.05432487E-03   1.20269501    
   1.25000000      0.675000012       1.13869631       6.75585866E-03   1.13871634    
   1.25000000      0.725000024       1.04836321       8.01108778E-03   1.04839385    
   1.25000000      0.774999976      0.928696990       8.65042396E-03  0.928737223    
   1.25000000      0.825000048      0.777363777       8.49198457E-03  0.777410150    
   1.25000000      0.875000000      0.593325019       7.35194143E-03  0.593370557    
   1.25000000      0.925000012      0.377490282       5.05461171E-03  0.377524137    
   1.25000000      0.975000024      0.133323967       1.79772964E-03  0.133336082    
   1.25000000       1.00000000       0.00000000       0.00000000       0.00000000    
   1.41666675       0.00000000       0.00000000       0.00000000       0.00000000    
   1.41666675       2.50000004E-02  0.130517840      -1.99583266E-03  0.130533099    
   1.41666675       7.50000030E-02  0.369936287      -5.45139238E-03  0.369976461    
   1.41666675      0.125000000      0.581661701      -7.74800777E-03  0.581713259    
   1.41666675      0.175000012      0.762156010      -8.89080670E-03  0.762207866    
   1.41666675      0.224999994      0.910523534      -9.06190462E-03  0.910568655    
   1.41666675      0.275000006       1.02781677      -8.44090618E-03   1.02785146    
   1.41666675      0.324999988       1.11635160      -7.20249861E-03   1.11637485    
   1.41666675      0.375000000       1.17906499      -5.50980400E-03   1.17907786    
   1.41666675      0.425000012       1.21888447      -3.50952428E-03   1.21888947    
   1.41666675      0.475000024       1.23814261      -1.33227743E-03   1.23814332    
   1.41666675      0.524999976       1.23812604       9.02482308E-04   1.23812640    
   1.41666675      0.575000048       1.21883404       3.07961600E-03   1.21883798    
   1.41666675      0.625000000       1.17897856       5.08009130E-03   1.17898953    
   1.41666675      0.675000012       1.11622822       6.77306671E-03   1.11624885    
   1.41666675      0.725000024       1.02765965       8.01167078E-03   1.02769089    
   1.41666675      0.774999976      0.910339236       8.63312744E-03  0.910380185    
   1.41666675      0.825000048      0.761959016       8.46296456E-03  0.762006044    
   1.41666675      0.875000000      0.581474543       7.32230023E-03  0.581520677    
   1.41666675      0.925000012      0.369794011       5.03518805E-03  0.369828284    
   1.41666675      0.975000024      0.130462676       1.79170584E-03  0.130474985    
   1.41666675       1.00000000       0.00000000       0.00000000       0.00000000    
   1.58333349       0.00000000       0.00000000       0.00000000       0.00000000    
   1.58333349       2.50000004E-02  0.127628744      -1.99201098E-03  0.127644286    
   1.58333349       7.50000030E-02  0.362197936      -5.43712918E-03  0.362238765    
   1.58333349      0.125000000      0.569783390      -7.72029534E-03  0.569835722    
   1.58333349      0.175000012      0.746751785      -8.85170046E-03  0.746804237    
   1.58333349      0.224999994      0.892193675      -9.01661254E-03  0.892239213    
   1.58333349      0.275000006       1.00715613      -8.39550607E-03   1.00719118    
   1.58333349      0.324999988       1.09392583      -7.16242939E-03   1.09394932    
   1.58333349      0.375000000       1.15538919      -5.47867175E-03   1.15540218    
   1.58333349      0.425000012       1.19441593      -3.48934345E-03   1.19442105    
   1.58333349      0.475000024       1.21329105      -1.32408517E-03   1.21329176    
   1.58333349      0.524999976       1.21327448       8.98506725E-04   1.21327484    
   1.58333349      0.575000048       1.19436598       3.06359143E-03   1.19436991    
   1.58333349      0.625000000       1.15530324       5.05247340E-03   1.15531433    
   1.58333349      0.675000012       1.09380388       6.73578912E-03   1.09382463    
   1.58333349      0.725000024       1.00700092       7.96870701E-03   1.00703251    
   1.58333349      0.774999976      0.892011881       8.58981349E-03  0.892053246    
   1.58333349      0.825000048      0.746557832       8.42526462E-03  0.746605396    
   1.58333349      0.875000000      0.569599748       7.29555637E-03  0.569646478    
   1.58333349      0.925000012      0.362058401       5.02146129E-03  0.362093210    
   1.58333349      0.975000024      0.127574876       1.78806332E-03  0.127587393    
   1.58333349       1.00000000       0.00000000       0.00000000       0.00000000    
   1.75000000       0.00000000       0.00000000       0.00000000       0.00000000    
   1.75000000       2.50000004E-02  0.124728888      -1.99022214E-03  0.124744765    
   1.75000000       7.50000030E-02  0.354436100      -5.43073099E-03  0.354477704    
   1.75000000      0.125000000      0.557879567      -7.70773366E-03  0.557932794    
   1.75000000      0.175000012      0.731330276      -8.83278996E-03  0.731383622    
   1.75000000      0.224999994      0.873860836      -8.99292249E-03  0.873907149    
   1.75000000      0.275000006      0.986508310      -8.36979318E-03  0.986543834    
   1.75000000      0.324999988       1.07152557      -7.13784434E-03   1.07154930    
   1.75000000      0.375000000       1.13174784      -5.45835029E-03   1.13176095    
   1.75000000      0.425000012       1.16998756      -3.47581413E-03   1.16999269    
   1.75000000      0.475000024       1.18848205      -1.31876103E-03   1.18848276    
   1.75000000      0.524999976       1.18846571       8.95070552E-04   1.18846607    
   1.75000000      0.575000048       1.16993833       3.05187656E-03   1.16994226    
   1.75000000      0.625000000       1.13166380       5.03411051E-03   1.13167500    
   1.75000000      0.675000012       1.07140625       6.71306439E-03   1.07142723    
   1.75000000      0.725000024      0.986355662       7.94426631E-03  0.986387670    
   1.75000000      0.774999976      0.873682439       8.56688060E-03  0.873724401    
   1.75000000      0.825000048      0.731140018       8.40694923E-03  0.731188357    
   1.75000000      0.875000000      0.557699740       7.28344731E-03  0.557747304    
   1.75000000      0.925000012      0.354299426       5.01550036E-03  0.354334921    
   1.75000000      0.975000024      0.124676228       1.78651640E-03  0.124689028    
   1.75000000       1.00000000       0.00000000       0.00000000       0.00000000    
   1.91666675       0.00000000       0.00000000       0.00000000       0.00000000    
   1.91666675       2.50000004E-02  0.121829614      -1.98969897E-03  0.121845864    
   1.91666675       7.50000030E-02  0.346671104      -5.42889955E-03  0.346713603    
   1.91666675      0.125000000      0.545969844      -7.70403352E-03  0.546024203    
   1.91666675      0.175000012      0.715903759      -8.82684812E-03  0.715958178    
   1.91666675      0.224999994      0.855528116      -8.98497552E-03  0.855575264    
   1.91666675      0.275000006      0.965867877      -8.36079195E-03  0.965904057    
   1.91666675      0.324999988       1.04914057      -7.12911598E-03   1.04916477    
   1.91666675      0.375000000       1.10812807      -5.45101892E-03   1.10814142    
   1.91666675      0.425000012       1.14558530      -3.47080082E-03   1.14559054    
   1.91666675      0.475000024       1.16370130      -1.31690910E-03   1.16370201    
   1.91666675      0.524999976       1.16368556       8.93582357E-04   1.16368592    
   1.91666675      0.575000048       1.14553690       3.04742297E-03   1.14554095    
   1.91666675      0.625000000       1.10804582       5.02731046E-03   1.10805726    
   1.91666675      0.675000012       1.04902387       6.70491764E-03   1.04904532    
   1.91666675      0.725000024      0.965718389       7.93598965E-03  0.965750992    
   1.91666675      0.774999976      0.855353534       8.55957717E-03  0.855396330    
   1.91666675      0.825000048      0.715717554       8.40143953E-03  0.715766847    
   1.91666675      0.875000000      0.545793593       7.28002377E-03  0.545842111    
   1.91666675      0.925000012      0.346537113       5.01375739E-03  0.346573383    
   1.91666675      0.975000024      0.121777788       1.78598054E-03  0.121790886    
   1.91666675       1.00000000       0.00000000       0.00000000       0.00000000    
   2.08333349       0.00000000       0.00000000       0.00000000       0.00000000    
   2.08333349       2.50000004E-02  0.118935794      -1.98935904E-03  0.118952423    
   2.08333349       7.50000030E-02  0.338913262      -5.42843109E-03  0.338956714    
   2.08333349      0.125000000      0.534065306      -7.70368706E-03  0.534120858    
   2.08333349      0.175000012      0.700481772      -8.82620551E-03  0.700537384    
   2.08333349      0.224999994      0.837201059      -8.98388959E-03  0.837249279    
   2.08333349      0.275000006      0.945235074      -8.35921522E-03  0.945272028    
   2.08333349      0.324999988       1.02676642      -7.12731434E-03   1.02679110    
   2.08333349      0.375000000       1.08452153      -5.44954138E-03   1.08453524    
   2.08333349      0.425000012       1.12119770      -3.46988020E-03   1.12120306    
   2.08333349      0.475000024       1.13893676      -1.31656171E-03   1.13893759    
   2.08333349      0.524999976       1.13892126       8.93210352E-04   1.13892162    
   2.08333349      0.575000048       1.12115026       3.04637570E-03   1.12115443    
   2.08333349      0.625000000       1.08444095       5.02582081E-03   1.08445263    
   2.08333349      0.675000012       1.02665186       6.70325663E-03   1.02667379    
   2.08333349      0.725000024      0.945088744       7.93454144E-03  0.945122004    
   2.08333349      0.774999976      0.837030172       8.55866447E-03  0.837073922    
   2.08333349      0.825000048      0.700299621       8.40114243E-03  0.700349987    
   2.08333349      0.875000000      0.533893049       7.28005730E-03  0.533942640    
   2.08333349      0.925000012      0.338782132       5.01368428E-03  0.338819236    
   2.08333349      0.975000024      0.118884861       1.78586866E-03  0.118898273    
   2.08333349       1.00000000       0.00000000       0.00000000       0.00000000    
   2.25000000       0.00000000       0.00000000       0.00000000       0.00000000    
   2.25000000       2.50000004E-02  0.116049521      -1.98933133E-03  0.116066568    
   2.25000000       7.50000030E-02  0.331167161      -5.42882830E-03  0.331211656    
   2.25000000      0.125000000      0.522171140      -7.70488381E-03  0.522228003    
   2.25000000      0.175000012      0.685068786      -8.82778410E-03  0.685125649    
   2.25000000      0.224999994      0.818882525      -8.98543186E-03  0.818931818    
   2.25000000      0.275000006      0.924611092      -8.36067647E-03  0.924648881    
   2.25000000      0.324999988       1.00440156      -7.12863868E-03   1.00442684    
   2.25000000      0.375000000       1.06092489      -5.45048527E-03   1.06093884    
   2.25000000      0.425000012       1.09682035      -3.47030559E-03   1.09682584    
   2.25000000      0.475000024       1.11418283      -1.31643121E-03   1.11418366    
   2.25000000      0.524999976       1.11416745       8.93900753E-04   1.11416781    
   2.25000000      0.575000048       1.09677410       3.04737594E-03   1.09677827    
   2.25000000      0.625000000       1.06084609       5.02693281E-03   1.06085801    
   2.25000000      0.675000012       1.00428939       6.70447201E-03   1.00431180    
   2.25000000      0.725000024      0.924468040       7.93599430E-03  0.924502134    
   2.25000000      0.774999976      0.818715453       8.56040791E-03  0.818760216    
   2.25000000      0.825000048      0.684890747       8.40289705E-03  0.684942305    
   2.25000000      0.875000000      0.522003353       7.28151482E-03  0.522054136    
   2.25000000      0.925000012      0.331039369       5.01435576E-03  0.331077337    
   2.25000000      0.975000024      0.116000086       1.78592303E-03  0.116013832    
   2.25000000       1.00000000       0.00000000       0.00000000       0.00000000    
   2.41666698       0.00000000       0.00000000       0.00000000       0.00000000    
   2.41666698       2.50000004E-02  0.113172382      -1.98922842E-03  0.113189861    
   2.41666698       7.50000030E-02  0.323435366      -5.42919664E-03  0.323480934    
   2.41666698      0.125000000      0.510290504      -7.70633295E-03  0.510348678    
   2.41666698      0.175000012      0.669667006      -8.82988982E-03  0.669725239    
   2.41666698      0.224999994      0.800574005      -8.98763351E-03  0.800624430    
   2.41666698      0.275000006      0.903997064      -8.36266577E-03  0.904035747    
   2.41666698      0.324999988      0.982046008      -7.13024382E-03  0.982071877    
   2.41666698      0.375000000       1.03733766      -5.45158610E-03   1.03735197    
   2.41666698      0.425000012       1.07245231      -3.47090047E-03   1.07245791    
   2.41666698      0.475000024       1.08943784      -1.31653924E-03   1.08943868    
   2.41666698      0.524999976       1.08942294       8.94412398E-04   1.08942330    
   2.41666698      0.575000048       1.07240748       3.04864696E-03   1.07241178    
   2.41666698      0.625000000       1.03726077       5.02887461E-03   1.03727293    
   2.41666698      0.675000012      0.981936693       6.70692232E-03  0.981959581    
   2.41666698      0.725000024      0.903857231       7.93869048E-03  0.903892100    
   2.41666698      0.774999976      0.800411046       8.56309291E-03  0.800456822    