 TITLE= "TESTPLOT" 
 VARIABLES="x","y","fx","fy","magf" 
 ZONE T="1", I=          51 , J=          51
   0.00000000       0.00000000       0.00000000       0.00000000       0.00000000    
   0.00000000       9.99999978E-03   0.00000000       0.00000000       0.00000000    
   0.00000000       2.99999993E-02   0.00000000       0.00000000       0.00000000    
   0.00000000       4.99999970E-02   0.00000000       0.00000000       0.00000000    
   0.00000000       7.00000003E-02   0.00000000       0.00000000       0.00000000    
   0.00000000       8.99999961E-02   0.00000000       0.00000000       0.00000000    
   0.00000000      0.109999999       0.00000000       0.00000000       0.00000000    
   0.00000000      0.129999995       0.00000000       0.00000000       0.00000000    
   0.00000000      0.150000006       0.00000000       0.00000000       0.00000000    
   0.00000000      0.169999987       0.00000000       0.00000000       0.00000000    
   0.00000000      0.189999998       0.00000000       0.00000000       0.00000000    
   0.00000000      0.209999993       0.00000000       0.00000000       0.00000000    
   0.00000000      0.229999989       0.00000000       0.00000000       0.00000000    
   0.00000000      0.250000000       0.00000000       0.00000000       0.00000000    
   0.00000000      0.269999981       0.00000000       0.00000000       0.00000000    
   0.00000000      0.289999992       0.00000000       0.00000000       0.00000000    
   0.00000000      0.310000002       0.00000000       0.00000000       0.00000000    
   0.00000000      0.329999983       0.00000000       0.00000000       0.00000000    
   0.00000000      0.349999994       0.00000000       0.00000000       0.00000000    
   0.00000000      0.370000005       0.00000000       0.00000000       0.00000000    
   0.00000000      0.389999986       0.00000000       0.00000000       0.00000000    
   0.00000000      0.409999967       0.00000000       0.00000000       0.00000000    
   0.00000000      0.430000007       0.00000000       0.00000000       0.00000000    
   0.00000000      0.449999988       0.00000000       0.00000000       0.00000000    
   0.00000000      0.469999969       0.00000000       0.00000000       0.00000000    
   0.00000000      0.490000010       0.00000000       0.00000000       0.00000000    
   0.00000000      0.509999990       0.00000000       0.00000000       0.00000000    
   0.00000000      0.529999971       0.00000000       0.00000000       0.00000000    
   0.00000000      0.549999952       0.00000000       0.00000000       0.00000000    
   0.00000000      0.569999993       0.00000000       0.00000000       0.00000000    
   0.00000000      0.589999974       0.00000000       0.00000000       0.00000000    
   0.00000000      0.610000014       0.00000000       0.00000000       0.00000000    
   0.00000000      0.629999995       0.00000000       0.00000000       0.00000000    
   0.00000000      0.649999976       0.00000000       0.00000000       0.00000000    
   0.00000000      0.669999957       0.00000000       0.00000000       0.00000000    
   0.00000000      0.689999998       0.00000000       0.00000000       0.00000000    
   0.00000000      0.709999979       0.00000000       0.00000000       0.00000000    
   0.00000000      0.730000019       0.00000000       0.00000000       0.00000000    
   0.00000000      0.750000000       0.00000000       0.00000000       0.00000000    
   0.00000000      0.769999981       0.00000000       0.00000000       0.00000000    
   0.00000000      0.789999962       0.00000000       0.00000000       0.00000000    
   0.00000000      0.809999943       0.00000000       0.00000000       0.00000000    
   0.00000000      0.829999983       0.00000000       0.00000000       0.00000000    
   0.00000000      0.849999964       0.00000000       0.00000000       0.00000000    
   0.00000000      0.870000005       0.00000000       0.00000000       0.00000000    
   0.00000000      0.889999986       0.00000000       0.00000000       0.00000000    
   0.00000000      0.909999967       0.00000000       0.00000000       0.00000000    
   0.00000000      0.929999948       0.00000000       0.00000000       0.00000000    
   0.00000000      0.949999988       0.00000000       0.00000000       0.00000000    
   0.00000000      0.969999969       0.00000000       0.00000000       0.00000000    
   0.00000000      0.990000010       0.00000000       0.00000000       0.00000000    
   0.00000000       1.00000000       1.00000000       0.00000000       1.00000000    
   9.99999978E-03   0.00000000       0.00000000       0.00000000       0.00000000    
   9.99999978E-03   9.99999978E-03   3.44164218E-05   4.68223834E-06   3.47334608E-05
   9.99999978E-03   2.99999993E-02  -7.34076366E-07   4.99781927E-05   4.99835842E-05
   9.99999978E-03   4.99999970E-02  -3.48488793E-05   1.65229401E-04   1.68864441E-04
   9.99999978E-03   7.00000003E-02  -5.51594676E-05   3.34745244E-04   3.39259394E-04
   9.99999978E-03   8.99999961E-02  -6.54990581E-05   5.34769904E-04   5.38766151E-04
   9.99999978E-03  0.109999999      -7.04641425E-05   7.49946805E-04   7.53249915E-04
   9.99999978E-03  0.129999995      -7.31919063E-05   9.72643320E-04   9.75393283E-04
   9.99999978E-03  0.150000006      -7.53497443E-05   1.20002823E-03   1.20239158E-03
   9.99999978E-03  0.169999987      -7.76596135E-05   1.43165956E-03   1.43376435E-03
   9.99999978E-03  0.189999998      -8.03761286E-05   1.66807114E-03   1.67000643E-03
   9.99999978E-03  0.209999993      -8.35691826E-05   1.91012258E-03   1.91194983E-03
   9.99999978E-03  0.229999989      -8.72506716E-05   2.15875544E-03   2.16051796E-03
   9.99999978E-03  0.250000000      -9.14230841E-05   2.41492572E-03   2.41665565E-03
   9.99999978E-03  0.269999981      -9.60919351E-05   2.67959898E-03   2.68132146E-03
   9.99999978E-03  0.289999992      -1.01269361E-04   2.95375846E-03   2.95549398E-03
   9.99999978E-03  0.310000002      -1.06974076E-04   3.23841954E-03   3.24018579E-03
   9.99999978E-03  0.329999983      -1.13231144E-04   3.53464205E-03   3.53645510E-03
   9.99999978E-03  0.349999994      -1.20072786E-04   3.84354405E-03   3.84541904E-03
   9.99999978E-03  0.370000005      -1.27537307E-04   4.16631484E-03   4.16826643E-03
   9.99999978E-03  0.389999986      -1.35676572E-04   4.50423639E-03   4.50627925E-03
   9.99999978E-03  0.409999967      -1.44550926E-04   4.85870242E-03   4.86085238E-03
   9.99999978E-03  0.430000007      -1.54237423E-04   5.23124542E-03   5.23351878E-03
   9.99999978E-03  0.449999988      -1.64831567E-04   5.62357390E-03   5.62598882E-03
   9.99999978E-03  0.469999969      -1.76455898E-04   6.03761245E-03   6.04019035E-03
   9.99999978E-03  0.490000010      -1.89256432E-04   6.47555757E-03   6.47832267E-03
   9.99999978E-03  0.509999990      -2.03422387E-04   6.93994295E-03   6.94292365E-03
   9.99999978E-03  0.529999971      -2.19197187E-04   7.43373577E-03   7.43696699E-03
   9.99999978E-03  0.549999952      -2.36883992E-04   7.96044990E-03   7.96397310E-03
   9.99999978E-03  0.569999993      -2.56876461E-04   8.52430053E-03   8.52817018E-03
   9.99999978E-03  0.589999974      -2.79681175E-04   9.13040433E-03   9.13468748E-03
   9.99999978E-03  0.610000014      -3.05966038E-04   9.78505053E-03   9.78983287E-03
   9.99999978E-03  0.629999995      -3.36604862E-04   1.04960762E-02   1.05014723E-02
   9.99999978E-03  0.649999976      -3.72773909E-04   1.12733664E-02   1.12795280E-02
   9.99999978E-03  0.669999957      -4.16075171E-04   1.21295899E-02   1.21367238E-02
   9.99999978E-03  0.689999998      -4.68716578E-04   1.30812228E-02   1.30896168E-02
   9.99999978E-03  0.709999979      -5.33824437E-04   1.41500793E-02   1.41601451E-02
   9.99999978E-03  0.730000019      -6.15906669E-04   1.53656099E-02   1.53779490E-02
   9.99999978E-03  0.750000000      -7.21683493E-04   1.67684946E-02   1.67840160E-02
   9.99999978E-03  0.769999981      -8.61468783E-04   1.84164457E-02   1.84365828E-02
   9.99999978E-03  0.789999962      -1.05160975E-03   2.03938447E-02   2.04209406E-02
   9.99999978E-03  0.809999943      -1.31890236E-03   2.28282101E-02   2.28662789E-02
   9.99999978E-03  0.829999983      -1.70848460E-03   2.59189978E-02   2.59752460E-02
   9.99999978E-03  0.849999964      -2.29802588E-03   2.99884789E-02   3.00763994E-02
   9.99999978E-03  0.870000005      -3.22266854E-03   3.55717316E-02   3.57174128E-02
   9.99999978E-03  0.889999986      -4.71628504E-03   4.35728431E-02   4.38273437E-02
   9.99999978E-03  0.909999967      -7.16447504E-03   5.55153973E-02   5.59757911E-02
   9.99999978E-03  0.929999948      -1.10739563E-02   7.38153011E-02   7.46413469E-02
   9.99999978E-03  0.949999988      -1.62341278E-02  0.101184614      0.102478646    
   9.99999978E-03  0.969999969      -1.45994732E-02  0.132079214      0.132883638    
   9.99999978E-03  0.990000010       7.33692497E-02   7.33545646E-02  0.103749409    
   9.99999978E-03   1.00000000       1.00000000       0.00000000       1.00000000    
   2.99999993E-02   0.00000000       0.00000000       0.00000000       0.00000000    
   2.99999993E-02   9.99999978E-03   6.52000745E-05   4.30206092E-05   7.81141644E-05
   2.99999993E-02   2.99999993E-02  -7.99500558E-05   2.04709766E-04   2.19768277E-04
   2.99999993E-02   4.99999970E-02  -2.11328937E-04   5.05104137E-04   5.47530944E-04
   2.99999993E-02   7.00000003E-02  -2.92477722E-04   9.09012859E-04   9.54907096E-04
   2.99999993E-02   8.99999961E-02  -3.36283643E-04   1.37643295E-03   1.41691719E-03
   2.99999993E-02  0.109999999      -3.58951220E-04   1.87956332E-03   1.91353192E-03
   2.99999993E-02  0.129999995      -3.72212700E-04   2.40306230E-03   2.43171770E-03
   2.99999993E-02  0.150000006      -3.82692786E-04   2.94033275E-03   2.96513247E-03
   2.99999993E-02  0.169999987      -3.93482012E-04   3.48971342E-03   3.51182674E-03
   2.99999993E-02  0.189999998      -4.05800238E-04   4.05190047E-03   4.07217024E-03
   2.99999993E-02  0.209999993      -4.20060795E-04   4.62857541E-03   4.64759720E-03
   2.99999993E-02  0.229999989      -4.36384900E-04   5.22178877E-03   5.23999147E-03
   2.99999993E-02  0.250000000      -4.54822468E-04   5.83373709E-03   5.85144013E-03
   2.99999993E-02  0.269999981      -4.75416804E-04   6.46669324E-03   6.48414530E-03
   2.99999993E-02  0.289999992      -4.98233887E-04   7.12300465E-03   7.14040827E-03
   2.99999993E-02  0.310000002      -5.23355440E-04   7.80510623E-03   7.82263279E-03
   2.99999993E-02  0.329999983      -5.50893252E-04   8.51554051E-03   8.53334088E-03
   2.99999993E-02  0.349999994      -5.80987486E-04   9.25698504E-03   9.27519891E-03
   2.99999993E-02  0.370000005      -6.13807118E-04   1.00322887E-02   1.00510484E-02
   2.99999993E-02  0.389999986      -6.49561873E-04   1.08445026E-02   1.08639393E-02
   2.99999993E-02  0.409999967      -6.88512984E-04   1.16969217E-02   1.17171677E-02
   2.99999993E-02  0.430000007      -7.30979664E-04   1.25931483E-02   1.26143452E-02
   2.99999993E-02  0.449999988      -7.77357782E-04   1.35371573E-02   1.35594578E-02
   2.99999993E-02  0.469999969      -8.28141288E-04   1.45333782E-02   1.45569537E-02
   2.99999993E-02  0.490000010      -8.83938919E-04   1.55868083E-02   1.56118525E-02
   2.99999993E-02  0.509999990      -9.45519714E-04   1.67031512E-02   1.67298913E-02
   2.99999993E-02  0.529999971      -1.01384637E-03   1.78889818E-02   1.79176889E-02
   2.99999993E-02  0.549999952      -1.09014055E-03   1.91519633E-02   1.91829633E-02
   2.99999993E-02  0.569999993      -1.17596309E-03   2.05011573E-02   2.05348562E-02
   2.99999993E-02  0.589999974      -1.27331202E-03   2.19473764E-02   2.19842829E-02
   2.99999993E-02  0.610000014      -1.38478202E-03   2.35036835E-02   2.35444419E-02
   2.99999993E-02  0.629999995      -1.51377113E-03   2.51860507E-02   2.52315011E-02
   2.99999993E-02  0.649999976      -1.66478218E-03   2.70142555E-02   2.70655043E-02
   2.99999993E-02  0.669999957      -1.84386829E-03   2.90130749E-02   2.90716067E-02
   2.99999993E-02  0.689999998      -2.05927086E-03   3.12139541E-02   3.12818065E-02
   2.99999993E-02  0.709999979      -2.32245633E-03   3.36573943E-02   3.37374248E-02
   2.99999993E-02  0.730000019      -2.64964974E-03   3.63963097E-02   3.64926308E-02
   2.99999993E-02  0.750000000      -3.06437747E-03   3.95009182E-02   3.96196023E-02
   2.99999993E-02  0.769999981      -3.60157504E-03   4.30658311E-02   4.32161689E-02
   2.99999993E-02  0.789999962      -4.31437744E-03   4.72204015E-02   4.74170856E-02
   2.99999993E-02  0.809999943      -5.28530683E-03   5.21433614E-02   5.24105392E-02
   2.99999993E-02  0.829999983      -6.64434303E-03   5.80820814E-02   5.84608875E-02
   2.99999993E-02  0.849999964      -8.59687291E-03   6.53736815E-02   6.59365132E-02
   2.99999993E-02  0.870000005      -1.14629613E-02   7.44550973E-02   7.53323361E-02
   2.99999993E-02  0.889999986      -1.57169383E-02   8.58196542E-02   8.72469768E-02
   2.99999993E-02  0.909999967      -2.19506975E-02   9.97879505E-02  0.102173716    
   2.99999993E-02  0.929999948      -3.03490218E-02  0.115672648      0.119587727    
   2.99999993E-02  0.949999988      -3.74826416E-02  0.128949717      0.134286925    
   2.99999993E-02  0.969999969      -1.74988583E-02  0.122325316      0.123570599    
   2.99999993E-02  0.990000010      0.202081442       5.53278960E-02  0.209518701    
   2.99999993E-02   1.00000000       1.00000000       0.00000000       1.00000000    
   4.99999970E-02   0.00000000       0.00000000       0.00000000       0.00000000    
   4.99999970E-02   9.99999978E-03   2.58685250E-05   7.47169470E-05   7.90683407E-05
   4.99999970E-02   2.99999993E-02  -2.96086189E-04   3.26897745E-04   4.41054610E-04
   4.99999970E-02   4.99999970E-02  -5.66988019E-04   7.58107577E-04   9.46679735E-04
   4.99999970E-02   7.00000003E-02  -7.37215159E-04   1.31408009E-03   1.50674896E-03
   4.99999970E-02   8.99999961E-02  -8.32779682E-04   1.94709306E-03   2.11770949E-03
   4.99999970E-02  0.109999999      -8.84921639E-04   2.62532150E-03   2.77045113E-03
   4.99999970E-02  0.129999995      -9.16913676E-04   3.33103770E-03   3.45493038E-03
   4.99999970E-02  0.150000006      -9.42429469E-04   4.05635173E-03   4.16439213E-03
   4.99999970E-02  0.169999987      -9.68186650E-04   4.79911361E-03   4.89580166E-03
   4.99999970E-02  0.189999998      -9.97039257E-04   5.56007586E-03   5.64876385E-03
   4.99999970E-02  0.209999993      -1.03006349E-03   6.34130556E-03   6.42442098E-03
   4.99999970E-02  0.229999989      -1.06764724E-03   7.14542856E-03   7.22475024E-03
   4.99999970E-02  0.250000000      -1.10996375E-03   7.97531847E-03   8.05218704E-03
   4.99999970E-02  0.269999981      -1.15714816E-03   8.83398764E-03   8.90945178E-03
   4.99999970E-02  0.289999992      -1.20935845E-03   9.72456113E-03   9.79947113E-03
   4.99999970E-02  0.310000002      -1.26678881E-03   1.06502809E-02   1.07253548E-02
   4.99999970E-02  0.329999983      -1.32968940E-03   1.16145331E-02   1.16903996E-02
   4.99999970E-02  0.349999994      -1.39836886E-03   1.26208775E-02   1.26981093E-02
   4.99999970E-02  0.370000005      -1.47320156E-03   1.36730811E-02   1.37522165E-02
   4.99999970E-02  0.389999986      -1.55463850E-03   1.47751570E-02   1.48567213E-02
   4.99999970E-02  0.409999967      -1.64324115E-03   1.59314163E-02   1.60159376E-02
   4.99999970E-02  0.430000007      -1.73969707E-03   1.71465352E-02   1.72345638E-02
   4.99999970E-02  0.449999988      -1.84484315E-03   1.84256304E-02   1.85177568E-02
   4.99999970E-02  0.469999969      -1.95971644E-03   1.97743475E-02   1.98712181E-02
   4.99999970E-02  0.490000010      -2.08560051E-03   2.11989917E-02   2.13013384E-02
   4.99999970E-02  0.509999990      -2.22409074E-03   2.27066539E-02   2.28153169E-02
   4.99999970E-02  0.529999971      -2.37718131E-03   2.43054293E-02   2.44214032E-02
   4.99999970E-02  0.549999952      -2.54736957E-03   2.60046236E-02   2.61290930E-02
   4.99999970E-02  0.569999993      -2.73783668E-03   2.78150514E-02   2.79494692E-02
   4.99999970E-02  0.589999974      -2.95260525E-03   2.97494195E-02   2.98955832E-02
   4.99999970E-02  0.610000014      -3.19686392E-03   3.18228081E-02   3.19829807E-02
   4.99999970E-02  0.629999995      -3.47732566E-03   3.40532959E-02   3.42303775E-02
   4.99999970E-02  0.649999976      -3.80277028E-03   3.64627615E-02   3.66605259E-02
   4.99999970E-02  0.669999957      -4.18483187E-03   3.90779376E-02   3.93013731E-02
   4.99999970E-02  0.689999998      -4.63910215E-03   4.19318154E-02   4.21876572E-02
   4.99999970E-02  0.709999979      -5.18679712E-03   4.50654514E-02   4.53629568E-02
   4.99999970E-02  0.730000019      -5.85727021E-03   4.85303625E-02   4.88825478E-02
   4.99999970E-02  0.750000000      -6.69173803E-03   5.23915738E-02   5.28171994E-02
   4.99999970E-02  0.769999981      -7.74909463E-03   5.67313880E-02   5.72581775E-02
   4.99999970E-02  0.789999962      -9.11461003E-03   6.16534315E-02   6.23235255E-02
   4.99999970E-02  0.809999943      -1.09124370E-02   6.72857463E-02   6.81648925E-02
   4.99999970E-02  0.829999983      -1.33219808E-02   7.37788007E-02   7.49719068E-02
   4.99999970E-02  0.849999964      -1.65941939E-02   8.12882781E-02   8.29647630E-02
   4.99999970E-02  0.870000005      -2.10520886E-02   8.99185538E-02   9.23500806E-02
   4.99999970E-02  0.889999986      -2.70208325E-02   9.95714292E-02  0.103172645    
   4.99999970E-02  0.909999967      -3.44962738E-02  0.109576225      0.114877939    
   4.99999970E-02  0.929999948      -4.18088436E-02  0.117819823      0.125017956    
   4.99999970E-02  0.949999988      -4.00711857E-02  0.118713431      0.125293970    
   4.99999970E-02  0.969999969       1.20972339E-02   9.84520093E-02   9.91924480E-02
   4.99999970E-02  0.990000010      0.297732323       4.02930640E-02  0.300446451    
   4.99999970E-02   1.00000000       1.00000000       0.00000000       1.00000000    
   7.00000003E-02   0.00000000       0.00000000       0.00000000       0.00000000    
   7.00000003E-02   9.99999978E-03  -6.39981881E-05   9.26567518E-05   1.12610134E-04
   7.00000003E-02   2.99999993E-02  -6.07444206E-04   3.98286968E-04   7.26375205E-04
   7.00000003E-02   4.99999970E-02  -1.03800592E-03   9.07429378E-04   1.37872563E-03
   7.00000003E-02   7.00000003E-02  -1.30807143E-03   1.55098503E-03   2.02894188E-03
   7.00000003E-02   8.99999961E-02  -1.46242697E-03   2.27584620E-03   2.70521129E-03
   7.00000003E-02  0.109999999      -1.54934882E-03   3.04875709E-03   3.41985398E-03
   7.00000003E-02  0.129999995      -1.60450325E-03   3.85177555E-03   4.17260174E-03
   7.00000003E-02  0.150000006      -1.64911640E-03   4.67706192E-03   4.95928340E-03
   7.00000003E-02  0.169999987      -1.69388670E-03   5.52256778E-03   5.77650499E-03
   7.00000003E-02  0.189999998      -1.74354250E-03   6.38919789E-03   6.62282342E-03
   7.00000003E-02  0.209999993      -1.79997366E-03   7.27923121E-03   7.49847386E-03
   7.00000003E-02  0.229999989      -1.86392828E-03   8.19556229E-03   8.40484723E-03
   7.00000003E-02  0.250000000      -1.93575327E-03   9.14137252E-03   9.34408046E-03
   7.00000003E-02  0.269999981      -2.01571127E-03   1.01200081E-02   1.03188008E-02
   7.00000003E-02  0.289999992      -2.10407563E-03   1.11349486E-02   1.13319987E-02
   7.00000003E-02  0.310000002      -2.20117718E-03   1.21898074E-02   1.23869525E-02
   7.00000003E-02  0.329999983      -2.30742409E-03   1.32883489E-02   1.34871947E-02
   7.00000003E-02  0.349999994      -2.42331135E-03   1.44345127E-02   1.46365156E-02
   7.00000003E-02  0.370000005      -2.54943687E-03   1.56324469E-02   1.58389714E-02
   7.00000003E-02  0.389999986      -2.68652383E-03   1.68865398E-02   1.70989074E-02
   7.00000003E-02  0.409999967      -2.83545698E-03   1.82014927E-02   1.84210241E-02
   7.00000003E-02  0.430000007      -2.99731363E-03   1.95823535E-02   1.98104139E-02
   7.00000003E-02  0.449999988      -3.17339762E-03   2.10345816E-02   2.12726127E-02
   7.00000003E-02  0.469999969      -3.36532062E-03   2.25641597E-02   2.28137393E-02
   7.00000003E-02  0.490000010      -3.57506028E-03   2.41776817E-02   2.44405679E-02
   7.00000003E-02  0.509999990      -3.80505994E-03   2.58824918E-02   2.61606928E-02
   7.00000003E-02  0.529999971      -4.05835267E-03   2.76868381E-02   2.79826950E-02
   7.00000003E-02  0.549999952      -4.33872221E-03   2.96000689E-02   2.99163591E-02
   7.00000003E-02  0.569999993      -4.65090713E-03   3.16328779E-02   3.19729559E-02
   7.00000003E-02  0.589999974      -5.00089768E-03   3.37975919E-02   3.41655686E-02
   7.00000003E-02  0.610000014      -5.39630372E-03   3.61085683E-02   3.65095697E-02
   7.00000003E-02  0.629999995      -5.84686548E-03   3.85825932E-02   3.90230976E-02
   7.00000003E-02  0.649999976      -6.36515394E-03   4.12394926E-02   4.17278185E-02
   7.00000003E-02  0.669999957      -6.96754083E-03   4.41027768E-02   4.46497686E-02
   7.00000003E-02  0.689999998      -7.67561048E-03   4.72004116E-02   4.78204340E-02
   7.00000003E-02  0.709999979      -8.51805881E-03   5.05657829E-02   5.12782186E-02
   7.00000003E-02  0.730000019      -9.53354128E-03   5.42386062E-02   5.50700910E-02
   7.00000003E-02  0.750000000      -1.07746515E-02   5.82657531E-02   5.92536181E-02
   7.00000003E-02  0.769999981      -1.23135746E-02   6.27015159E-02   6.38991669E-02
   7.00000003E-02  0.789999962      -1.42495874E-02   6.76061288E-02   6.90915287E-02
   7.00000003E-02  0.809999943      -1.67177133E-02   7.30403140E-02   7.49290958E-02
   7.00000003E-02  0.829999983      -1.98946632E-02   7.90505558E-02   8.15155730E-02
   7.00000003E-02  0.849999964      -2.39899196E-02   8.56339037E-02   8.89307708E-02
   7.00000003E-02  0.870000005      -2.91881021E-02   9.26589072E-02   9.71474051E-02
   7.00000003E-02  0.889999986      -3.54516506E-02   9.96955410E-02  0.105811253    
   7.00000003E-02  0.909999967      -4.19174731E-02  0.105664596      0.113675334    
   7.00000003E-02  0.929999948      -4.49911803E-02  0.108145572      0.117131002    
   7.00000003E-02  0.949999988      -3.16449553E-02  0.102128431      0.106918752    
   7.00000003E-02  0.969999969       4.73459549E-02   7.88345858E-02   9.19594020E-02
   7.00000003E-02  0.990000010      0.368810564       3.07556950E-02  0.370090723    
   7.00000003E-02   1.00000000       1.00000000       0.00000000       1.00000000    
   8.99999961E-02   0.00000000       0.00000000       0.00000000       0.00000000    
   8.99999961E-02   9.99999978E-03  -1.80647228E-04   1.00290075E-04   2.06619254E-04
   8.99999961E-02   2.99999993E-02  -9.72616370E-04   4.30624728E-04   1.06368237E-03
   8.99999961E-02   4.99999970E-02  -1.57333782E-03   9.77497781E-04   1.85226719E-03
   8.99999961E-02   7.00000003E-02  -1.94673310E-03   1.66312791E-03   2.56042276E-03
   8.99999961E-02   8.99999961E-02  -2.16136384E-03   2.43077567E-03   3.25271650E-03
   8.99999961E-02  0.109999999      -2.28438294E-03   3.24644288E-03   3.96960927E-03
   8.99999961E-02  0.129999995      -2.36426434E-03   4.09248285E-03   4.72632656E-03
   8.99999961E-02  0.150000006      -2.42978032E-03   4.96149389E-03   5.52451424E-03
   8.99999961E-02  0.169999987      -2.49555707E-03   5.85175445E-03   6.36166893E-03
   8.99999961E-02  0.189999998      -2.56817602E-03   6.76437328E-03   7.23548746E-03
   8.99999961E-02  0.209999993      -2.65035778E-03   7.70176807E-03   8.14503711E-03
   8.99999961E-02  0.229999989      -2.74322554E-03   8.66694655E-03   9.09072254E-03
   8.99999961E-02  0.250000000      -2.84731970E-03   9.66320001E-03   1.00739598E-02
   8.99999961E-02  0.269999981      -2.96303816E-03   1.06939869E-02   1.10968892E-02
   8.99999961E-02  0.289999992      -3.09078093E-03   1.17628947E-02   1.21621797E-02
   8.99999961E-02  0.310000002      -3.23101785E-03   1.28736421E-02   1.32729094E-02
   8.99999961E-02  0.329999983      -3.38430842E-03   1.40300933E-02   1.44325010E-02
   8.99999961E-02  0.349999994      -3.55133275E-03   1.52362688E-02   1.56446751E-02
   8.99999961E-02  0.370000005      -3.73289688E-03   1.64963864E-02   1.69134643E-02
   8.99999961E-02  0.389999986      -3.92998615E-03   1.78148821E-02   1.82432123E-02
   8.99999961E-02  0.409999967      -4.14378382E-03   1.91964582E-02   1.96386091E-02
   8.99999961E-02  0.430000007      -4.37572598E-03   2.06461214E-02   2.11047214E-02
   8.99999961E-02  0.449999988      -4.62754862E-03   2.21692547E-02   2.26470754E-02
   8.99999961E-02  0.469999969      -4.90137562E-03   2.37716716E-02   2.42717080E-02
   8.99999961E-02  0.490000010      -5.19980863E-03   2.54597161E-02   2.59852875E-02
   8.99999961E-02  0.509999990      -5.52603230E-03   2.72403453E-02   2.77952049E-02
   8.99999961E-02  0.529999971      -5.88397682E-03   2.91212592E-02   2.97097433E-02
   8.99999961E-02  0.549999952      -6.27851672E-03   3.11110392E-02   3.17382514E-02
   8.99999961E-02  0.569999993      -6.71568932E-03   3.32193226E-02   3.38913538E-02
   8.99999961E-02  0.589999974      -7.20307697E-03   3.54570001E-02   3.61812562E-02
   8.99999961E-02  0.610000014      -7.75017310E-03   3.78364250E-02   3.86220179E-02
   8.99999961E-02  0.629999995      -8.36900994E-03   4.03716788E-02   4.12300006E-02
   8.99999961E-02  0.649999976      -9.07489937E-03   4.30788472E-02   4.40243222E-02
   8.99999961E-02  0.669999957      -9.88742802E-03   4.59763035E-02   4.70274575E-02
   8.99999961E-02  0.689999998      -1.08319344E-02   4.90849316E-02   5.02659082E-02
   8.99999961E-02  0.709999979      -1.19413622E-02   5.24281822E-02   5.37709072E-02
   8.99999961E-02  0.730000019      -1.32588269E-02   5.60319051E-02   5.75792566E-02
   8.99999961E-02  0.750000000      -1.48411524E-02   5.99234849E-02   6.17339760E-02
   8.99999961E-02  0.769999981      -1.67631395E-02   6.41297325E-02   6.62844256E-02
   8.99999961E-02  0.789999962      -1.91222839E-02   6.86723441E-02   7.12850094E-02
   8.99999961E-02  0.809999943      -2.20413655E-02   7.35585168E-02   7.67898187E-02
   8.99999961E-02  0.829999983      -2.56615952E-02   7.87619352E-02   8.28369483E-02
   8.99999961E-02  0.849999964      -3.01066786E-02   8.41844231E-02   8.94059762E-02
   8.99999961E-02  0.870000005      -3.53696793E-02   8.95790011E-02   9.63089392E-02
   8.99999961E-02  0.889999986      -4.10061032E-02   9.43987370E-02  0.102920465    
   8.99999961E-02  0.909999967      -4.53244895E-02   9.75106061E-02  0.107529663    
   8.99999961E-02  0.929999948      -4.31211814E-02   9.66852456E-02  0.105865352    
   8.99999961E-02  0.949999988      -1.85228698E-02   8.78281668E-02   8.97601470E-02
   8.99999961E-02  0.969999969       8.05882439E-02   6.48747385E-02  0.103456259    
   8.99999961E-02  0.990000010      0.424102187       2.45069917E-02  0.424809664    
   8.99999961E-02   1.00000000       1.00000000       0.00000000       1.00000000    
  0.109999999       0.00000000       0.00000000       0.00000000       0.00000000    
  0.109999999       9.99999978E-03  -3.08400340E-04   1.02255835E-04   3.24910798E-04
  0.109999999       2.99999993E-02  -1.36204495E-03   4.40206146E-04   1.43141462E-03
  0.109999999       4.99999970E-02  -2.13788357E-03   9.99750802E-04   2.36009480E-03
  0.109999999       7.00000003E-02  -2.61530676E-03   1.69936824E-03   3.11892317E-03
  0.109999999       8.99999961E-02  -2.88966391E-03   2.48044357E-03   3.80824856E-03
  0.109999999      0.109999999      -3.04836454E-03   3.30860680E-03   4.49882261E-03
  0.109999999      0.129999995      -3.15302215E-03   4.16651461E-03   5.22507355E-03
  0.109999999      0.150000006      -3.23988311E-03   5.04718535E-03   5.99757629E-03
  0.109999999      0.169999987      -3.32735339E-03   5.94920944E-03   6.81647798E-03
  0.109999999      0.189999998      -3.42376670E-03   6.87388051E-03   7.67934974E-03
  0.109999999      0.209999993      -3.53261898E-03   7.82371126E-03   8.58427957E-03
  0.109999999      0.229999989      -3.65538476E-03   8.80175084E-03   9.53061692E-03
  0.109999999      0.250000000      -3.79279023E-03   9.81130265E-03   1.05188843E-02
  0.109999999      0.269999981      -3.94536229E-03   1.08558219E-02   1.15505308E-02
  0.109999999      0.289999992      -4.11362341E-03   1.19388876E-02   1.26277050E-02
  0.109999999      0.310000002      -4.29816870E-03   1.30641907E-02   1.37530845E-02
  0.109999999      0.329999983      -4.49969433E-03   1.42355487E-02   1.49297714E-02
  0.109999999      0.349999994      -4.71904268E-03   1.54569177E-02   1.61612388E-02
  0.109999999      0.370000005      -4.95721027E-03   1.67324170E-02   1.74512956E-02
  0.109999999      0.389999986      -5.21540083E-03   1.80663522E-02   1.88040826E-02
  0.109999999      0.409999967      -5.49505558E-03   1.94632467E-02   2.02240851E-02
  0.109999999      0.430000007      -5.79791376E-03   2.09278800E-02   2.17161682E-02
  0.109999999      0.449999988      -6.12606807E-03   2.24653184E-02   2.32856013E-02
  0.109999999      0.469999969      -6.48206286E-03   2.40809731E-02   2.49381308E-02
  0.109999999      0.490000010      -6.86900038E-03   2.57806610E-02   2.66800616E-02
  0.109999999      0.509999990      -7.29064969E-03   2.75706630E-02   2.85183284E-02
  0.109999999      0.529999971      -7.75164738E-03   2.94578113E-02   3.04606427E-02
  0.109999999      0.549999952      -8.25767033E-03   3.14495713E-02   3.25156078E-02
  0.109999999      0.569999993      -8.81573278E-03   3.35541368E-02   3.46928984E-02
  0.109999999      0.589999974      -9.43450816E-03   3.57805118E-02   3.70034464E-02
  0.109999999      0.610000014      -1.01247858E-02   3.81386429E-02   3.94596942E-02
  0.109999999      0.629999995      -1.09000262E-02   4.06394526E-02   4.20758314E-02
  0.109999999      0.649999976      -1.17771216E-02   4.32948843E-02   4.48681116E-02
  0.109999999      0.669999957      -1.27773555E-02   4.61178757E-02   4.78551909E-02