 TITLE= "TESTPLOT" 
 VARIABLES="x","y","fx","fy","magf" 
 ZONE T="1", I=          51 , J=          51
   0.00000000       0.00000000       0.00000000       0.00000000       0.00000000    
   0.00000000       9.99999978E-03   0.00000000       0.00000000       0.00000000    
   0.00000000       2.99999993E-02   0.00000000       0.00000000       0.00000000    
   0.00000000       4.99999970E-02   0.00000000       0.00000000       0.00000000    
   0.00000000       7.00000003E-02   0.00000000       0.00000000       0.00000000    
   0.00000000       8.99999961E-02   0.00000000       0.00000000       0.00000000    
   0.00000000      0.109999999       0.00000000       0.00000000       0.00000000    
   0.00000000      0.129999995       0.00000000       0.00000000       0.00000000    
   0.00000000      0.150000006       0.00000000       0.00000000       0.00000000    
   0.00000000      0.169999987       0.00000000       0.00000000       0.00000000    
   0.00000000      0.189999998       0.00000000       0.00000000       0.00000000    
   0.00000000      0.209999993       0.00000000       0.00000000       0.00000000    
   0.00000000      0.229999989       0.00000000       0.00000000       0.00000000    
   0.00000000      0.250000000       0.00000000       0.00000000       0.00000000    
   0.00000000      0.269999981       0.00000000       0.00000000       0.00000000    
   0.00000000      0.289999992       0.00000000       0.00000000       0.00000000    
   0.00000000      0.310000002       0.00000000       0.00000000       0.00000000    
   0.00000000      0.329999983       0.00000000       0.00000000       0.00000000    
   0.00000000      0.349999994       0.00000000       0.00000000       0.00000000    
   0.00000000      0.370000005       0.00000000       0.00000000       0.00000000    
   0.00000000      0.389999986       0.00000000       0.00000000       0.00000000    
   0.00000000      0.409999967       0.00000000       0.00000000       0.00000000    
   0.00000000      0.430000007       0.00000000       0.00000000       0.00000000    
   0.00000000      0.449999988       0.00000000       0.00000000       0.00000000    
   0.00000000      0.469999969       0.00000000       0.00000000       0.00000000    
   0.00000000      0.490000010       0.00000000       0.00000000       0.00000000    
   0.00000000      0.509999990       0.00000000       0.00000000       0.00000000    
   0.00000000      0.529999971       0.00000000       0.00000000       0.00000000    
   0.00000000      0.549999952       0.00000000       0.00000000       0.00000000    
   0.00000000      0.569999993       0.00000000       0.00000000       0.00000000    
   0.00000000      0.589999974       0.00000000       0.00000000       0.00000000    
   0.00000000      0.610000014       0.00000000       0.00000000       0.00000000    
   0.00000000      0.629999995       0.00000000       0.00000000       0.00000000    
   0.00000000      0.649999976       0.00000000       0.00000000       0.00000000    
   0.00000000      0.669999957       0.00000000       0.00000000       0.00000000    
   0.00000000      0.689999998       0.00000000       0.00000000       0.00000000    
   0.00000000      0.709999979       0.00000000       0.00000000       0.00000000    
   0.00000000      0.730000019       0.00000000       0.00000000       0.00000000    
   0.00000000      0.750000000       0.00000000       0.00000000       0.00000000    
   0.00000000      0.769999981       0.00000000       0.00000000       0.00000000    
   0.00000000      0.789999962       0.00000000       0.00000000       0.00000000    
   0.00000000      0.809999943       0.00000000       0.00000000       0.00000000    
   0.00000000      0.829999983       0.00000000       0.00000000       0.00000000    
   0.00000000      0.849999964       0.00000000       0.00000000       0.00000000    
   0.00000000      0.870000005       0.00000000       0.00000000       0.00000000    
   0.00000000      0.889999986       0.00000000       0.00000000       0.00000000    
   0.00000000      0.909999967       0.00000000       0.00000000       0.00000000    
   0.00000000      0.929999948       0.00000000       0.00000000       0.00000000    
   0.00000000      0.949999988       0.00000000       0.00000000       0.00000000    
   0.00000000      0.969999969       0.00000000       0.00000000       0.00000000    
   0.00000000      0.990000010       0.00000000       0.00000000       0.00000000    
   0.00000000       1.00000000       1.00000000       0.00000000       1.00000000    
   9.99999978E-03   0.00000000       0.00000000       0.00000000       0.00000000    
   9.99999978E-03   9.99999978E-03   6.95980134E-06  -7.49369929E-06   1.02271388E-05
   9.99999978E-03   2.99999993E-02  -5.18886845E-05   3.63557156E-05   6.33575110E-05
   9.99999978E-03   4.99999970E-02  -1.17514232E-04   2.04667245E-04   2.36004824E-04
   9.99999978E-03   7.00000003E-02  -1.74000510E-04   4.95089625E-04   5.24776056E-04
   9.99999978E-03   8.99999961E-02  -2.19484864E-04   8.87481379E-04   9.14219243E-04
   9.99999978E-03  0.109999999      -2.55336839E-04   1.36120897E-03   1.38495013E-03
   9.99999978E-03  0.129999995      -2.83282890E-04   1.89873530E-03   1.91975129E-03
   9.99999978E-03  0.150000006      -3.04794346E-04   2.48572230E-03   2.50433921E-03
   9.99999978E-03  0.169999987      -3.21036729E-04   3.11046909E-03   3.12699261E-03
   9.99999978E-03  0.189999998      -3.32922209E-04   3.76335206E-03   3.77804926E-03
   9.99999978E-03  0.209999993      -3.41164967E-04   4.43637511E-03   4.44947369E-03
   9.99999978E-03  0.229999989      -3.46314744E-04   5.12280595E-03   5.13449823E-03
   9.99999978E-03  0.250000000      -3.48786096E-04   5.81687642E-03   5.82732353E-03
   9.99999978E-03  0.269999981      -3.48881731E-04   6.51353598E-03   6.52287295E-03
   9.99999978E-03  0.289999992      -3.46805929E-04   7.20824301E-03   7.21658114E-03
   9.99999978E-03  0.310000002      -3.42694082E-04   7.89679214E-03   7.90422503E-03
   9.99999978E-03  0.329999983      -3.36622936E-04   8.57518986E-03   8.58179480E-03
   9.99999978E-03  0.349999994      -3.28648661E-04   9.23958048E-03   9.24542360E-03
   9.99999978E-03  0.370000005      -3.18805076E-04   9.88619030E-03   9.89132933E-03
   9.99999978E-03  0.389999986      -3.07149632E-04   1.05113424E-02   1.05158286E-02
   9.99999978E-03  0.409999967      -2.93770921E-04   1.11115044E-02   1.11153880E-02
   9.99999978E-03  0.430000007      -2.78803403E-04   1.16833635E-02   1.16866902E-02
   9.99999978E-03  0.449999988      -2.62450834E-04   1.22239497E-02   1.22267669E-02
   9.99999978E-03  0.469999969      -2.45004339E-04   1.27307791E-02   1.27331363E-02
   9.99999978E-03  0.490000010      -2.26838878E-04   1.32020433E-02   1.32039916E-02
   9.99999978E-03  0.509999990      -2.08437108E-04   1.36367837E-02   1.36383763E-02
   9.99999978E-03  0.529999971      -1.90392384E-04   1.40351187E-02   1.40364105E-02
   9.99999978E-03  0.549999952      -1.73413020E-04   1.43984687E-02   1.43995127E-02
   9.99999978E-03  0.569999993      -1.58340757E-04   1.47298044E-02   1.47306556E-02
   9.99999978E-03  0.589999974      -1.46167775E-04   1.50339268E-02   1.50346374E-02
   9.99999978E-03  0.610000014      -1.38043062E-04   1.53177828E-02   1.53184049E-02
   9.99999978E-03  0.629999995      -1.35362061E-04   1.55908596E-02   1.55914472E-02
   9.99999978E-03  0.649999976      -1.39797383E-04   1.58657134E-02   1.58663299E-02
   9.99999978E-03  0.669999957      -1.53442757E-04   1.61586665E-02   1.61593948E-02
   9.99999978E-03  0.689999998      -1.79021066E-04   1.64908580E-02   1.64918303E-02
   9.99999978E-03  0.709999979      -2.20172224E-04   1.68897882E-02   1.68912243E-02
   9.99999978E-03  0.730000019      -2.82007823E-04   1.73917077E-02   1.73939951E-02
   9.99999978E-03  0.750000000      -3.71986447E-04   1.80454403E-02   1.80492736E-02
   9.99999978E-03  0.769999981      -5.01450675E-04   1.89186092E-02   1.89252533E-02
   9.99999978E-03  0.789999962      -6.88320026E-04   2.01081019E-02   2.01198794E-02
   9.99999978E-03  0.809999943      -9.62006627E-04   2.17581354E-02   2.17793919E-02
   9.99999978E-03  0.829999983      -1.37229916E-03   2.40921248E-02   2.41311770E-02
   9.99999978E-03  0.849999964      -2.00539478E-03   2.74694785E-02   2.75425836E-02
   9.99999978E-03  0.870000005      -3.01166391E-03   3.24861668E-02   3.26254666E-02
   9.99999978E-03  0.889999986      -4.64848056E-03   4.01459076E-02   4.04141359E-02
   9.99999978E-03  0.909999967      -7.32463738E-03   5.21185845E-02   5.26307635E-02
   9.99999978E-03  0.929999948      -1.15305912E-02   7.09733441E-02   7.19038993E-02
   9.99999978E-03  0.949999988      -1.69150587E-02   9.94185135E-02  0.100847207    
   9.99999978E-03  0.969999969      -1.51347099E-02  0.131467819      0.132336110    
   9.99999978E-03  0.990000010       7.33010322E-02   7.33011439E-02  0.103663392    
   9.99999978E-03   1.00000000       1.00000000       0.00000000       1.00000000    
   2.99999993E-02   0.00000000       0.00000000       0.00000000       0.00000000    
   2.99999993E-02   9.99999978E-03  -3.58439065E-05   4.92235995E-05   6.08912815E-05
   2.99999993E-02   2.99999993E-02  -2.82237801E-04   2.76355830E-04   3.95007257E-04
   2.99999993E-02   4.99999970E-02  -5.44125738E-04   7.62809825E-04   9.36990720E-04
   2.99999993E-02   7.00000003E-02  -7.74112646E-04   1.49691431E-03   1.68523076E-03
   2.99999993E-02   8.99999961E-02  -9.63506347E-04   2.44645728E-03   2.62935297E-03
   2.99999993E-02  0.109999999      -1.11522037E-03   3.57443513E-03   3.74436937E-03
   2.99999993E-02  0.129999995      -1.23474305E-03   4.84605459E-03   5.00088325E-03
   2.99999993E-02  0.150000006      -1.32745085E-03   6.23099320E-03   6.37082430E-03
   2.99999993E-02  0.169999987      -1.39795220E-03   7.70363910E-03   7.82945193E-03
   2.99999993E-02  0.189999998      -1.45002769E-03   9.24261473E-03   9.35566705E-03
   2.99999993E-02  0.209999993      -1.48671004E-03   1.08301044E-02   1.09316725E-02
   2.99999993E-02  0.229999989      -1.51036808E-03   1.24511644E-02   1.25424359E-02
   2.99999993E-02  0.250000000      -1.52280636E-03   1.40930982E-02   1.41751319E-02
   2.99999993E-02  0.269999981      -1.52534526E-03   1.57448985E-02   1.58186127E-02
   2.99999993E-02  0.289999992      -1.51889608E-03   1.73967741E-02   1.74629558E-02
   2.99999993E-02  0.310000002      -1.50405441E-03   1.90397669E-02   1.90990809E-02
   2.99999993E-02  0.329999983      -1.48118671E-03   2.06654482E-02   2.07184628E-02
   2.99999993E-02  0.349999994      -1.45051675E-03   2.22657192E-02   2.23129168E-02
   2.99999993E-02  0.370000005      -1.41221588E-03   2.38326956E-02   2.38745008E-02
   2.99999993E-02  0.389999986      -1.36648817E-03   2.53586825E-02   2.53954735E-02
   2.99999993E-02  0.409999967      -1.31368078E-03   2.68362463E-02   2.68683806E-02
   2.99999993E-02  0.430000007      -1.25430129E-03   2.82583572E-02   2.82861814E-02
   2.99999993E-02  0.449999988      -1.18914689E-03   2.96186227E-02   2.96424851E-02
   2.99999993E-02  0.469999969      -1.11933553E-03   3.09115648E-02   3.09318248E-02
   2.99999993E-02  0.490000010      -1.04635651E-03   3.21329869E-02   3.21500190E-02
   2.99999993E-02  0.509999990      -9.72132431E-04   3.32803875E-02   3.32945846E-02
   2.99999993E-02  0.529999971      -8.99032748E-04   3.43533941E-02   3.43651548E-02
   2.99999993E-02  0.549999952      -8.29944212E-04   3.53543013E-02   3.53640430E-02
   2.99999993E-02  0.569999993      -7.68288039E-04   3.62886041E-02   3.62967364E-02
   2.99999993E-02  0.589999974      -7.18121068E-04   3.71656045E-02   3.71725410E-02
   2.99999993E-02  0.610000014      -6.84205675E-04   3.79991531E-02   3.80053110E-02
   2.99999993E-02  0.629999995      -6.72223512E-04   3.88084427E-02   3.88142653E-02
   2.99999993E-02  0.649999976      -6.89012581E-04   3.96190472E-02   3.96250375E-02
   2.99999993E-02  0.669999957      -7.43034412E-04   4.04643193E-02   4.04711403E-02
   2.99999993E-02  0.689999998      -8.45029368E-04   4.13871780E-02   4.13958058E-02
   2.99999993E-02  0.709999979      -1.00911700E-03   4.24426645E-02   4.24546599E-02
   2.99999993E-02  0.730000019      -1.25448790E-03   4.37016413E-02   4.37196419E-02
   2.99999993E-02  0.750000000      -1.60821283E-03   4.52560857E-02   4.52846512E-02
   2.99999993E-02  0.769999981      -2.10972852E-03   4.72268760E-02   4.72739786E-02
   2.99999993E-02  0.789999962      -2.81837233E-03   4.97751459E-02   4.98548709E-02
   2.99999993E-02  0.809999943      -3.82583286E-03   5.31183854E-02   5.32559827E-02
   2.99999993E-02  0.829999983      -5.27680945E-03   5.75520881E-02   5.77934906E-02
   2.99999993E-02  0.849999964      -7.40159117E-03   6.34747446E-02   6.39048219E-02
   2.99999993E-02  0.870000005      -1.05621582E-02   7.14039803E-02   7.21809343E-02
   2.99999993E-02  0.889999986      -1.52953910E-02   8.19408223E-02   8.33561495E-02
   2.99999993E-02  0.909999967      -2.22542901E-02   9.55438092E-02   9.81013402E-02
   2.99999993E-02  0.929999948      -3.15845087E-02  0.111671656      0.116052322    
   2.99999993E-02  0.949999988      -3.95023301E-02  0.125866696      0.131919891    
   2.99999993E-02  0.969999969      -1.94384810E-02  0.120707482      0.122262627    
   2.99999993E-02  0.990000010      0.201540112       5.49381562E-02  0.208893791    
   2.99999993E-02   1.00000000       1.00000000       0.00000000       1.00000000    
   4.99999970E-02   0.00000000       0.00000000       0.00000000       0.00000000    
   4.99999970E-02   9.99999978E-03  -1.92301930E-04   1.06156287E-04   2.19656984E-04
   4.99999970E-02   2.99999993E-02  -7.53954460E-04   5.05018630E-04   9.07464128E-04
   4.99999970E-02   4.99999970E-02  -1.31567428E-03   1.25962566E-03   1.82144332E-03
   4.99999970E-02   7.00000003E-02  -1.81145268E-03   2.33220425E-03   2.95305555E-03
   4.99999970E-02   8.99999961E-02  -2.22546374E-03   3.67975188E-03   4.30037919E-03
   4.99999970E-02  0.109999999      -2.56118318E-03   5.25748730E-03   5.84814791E-03
   4.99999970E-02  0.129999995      -2.82813748E-03   7.02301972E-03   7.57107465E-03
   4.99999970E-02  0.150000006      -3.03676515E-03   8.93859193E-03   9.44035873E-03
   4.99999970E-02  0.169999987      -3.19661456E-03   1.09717371E-02   1.14279203E-02
   4.99999970E-02  0.189999998      -3.31582827E-03   1.30950566E-02   1.35083394E-02
   4.99999970E-02  0.209999993      -3.40108154E-03   1.52855972E-02   1.56594012E-02
   4.99999970E-02  0.229999989      -3.45766591E-03   1.75240934E-02   1.78619511E-02
   4.99999970E-02  0.250000000      -3.48964334E-03   1.97942220E-02   2.00994723E-02
   4.99999970E-02  0.269999981      -3.49999359E-03   2.20818818E-02   2.23575365E-02
   4.99999970E-02  0.289999992      -3.49080283E-03   2.43745856E-02   2.46232841E-02
   4.99999970E-02  0.310000002      -3.46342800E-03   2.66609639E-02   2.68849824E-02
   4.99999970E-02  0.329999983      -3.41871404E-03   2.89303381E-02   2.91316342E-02
   4.99999970E-02  0.349999994      -3.35716177E-03   3.11724655E-02   3.13527212E-02
   4.99999970E-02  0.370000005      -3.27913044E-03   3.33773568E-02   3.35380472E-02
   4.99999970E-02  0.389999986      -3.18502169E-03   3.55352089E-02   3.56776603E-02
   4.99999970E-02  0.409999967      -3.07547348E-03   3.76364514E-02   3.77619006E-02
   4.99999970E-02  0.430000007      -2.95151561E-03   3.96719128E-02   3.97815555E-02
   4.99999970E-02  0.449999988      -2.81472085E-03   4.16330956E-02   4.17281352E-02
   4.99999970E-02  0.469999969      -2.66734674E-03   4.35124859E-02   4.35941629E-02
   4.99999970E-02  0.490000010      -2.51244032E-03   4.53040004E-02   4.53736112E-02
   4.99999970E-02  0.509999990      -2.35397252E-03   4.70034517E-02   4.70623560E-02
   4.99999970E-02  0.529999971      -2.19689286E-03   4.86091524E-02   4.86587696E-02
   4.99999970E-02  0.549999952      -2.04725098E-03   5.01225032E-02   5.01642935E-02
   4.99999970E-02  0.569999993      -1.91229093E-03   5.15486710E-02   5.15841283E-02
   4.99999970E-02  0.589999974      -1.80058437E-03   5.28973639E-02   5.29280007E-02
   4.99999970E-02  0.610000014      -1.72223814E-03   5.41836023E-02   5.42109683E-02
   4.99999970E-02  0.629999995      -1.68920332E-03   5.54286651E-02   5.54543994E-02
   4.99999970E-02  0.649999976      -1.71575882E-03   5.66611663E-02   5.66871390E-02
   4.99999970E-02  0.669999957      -1.81928289E-03   5.79183064E-02   5.79468720E-02
   4.99999970E-02  0.689999998      -2.02135532E-03   5.92474639E-02   5.92819341E-02
   4.99999970E-02  0.709999979      -2.34957458E-03   6.07082099E-02   6.07536584E-02
   4.99999970E-02  0.730000019      -2.84016272E-03   6.23748265E-02   6.24394529E-02
   4.99999970E-02  0.750000000      -3.54215340E-03   6.43394589E-02   6.44368902E-02
   4.99999970E-02  0.769999981      -4.52356460E-03   6.67158812E-02   6.68690652E-02
   4.99999970E-02  0.789999962      -5.88097703E-03   6.96434677E-02   6.98913336E-02
   4.99999970E-02  0.809999943      -7.75352865E-03   7.32898936E-02   7.36988857E-02
   4.99999970E-02  0.829999983      -1.03425207E-02   7.78489262E-02   7.85329416E-02
   4.99999970E-02  0.849999964      -1.39342118E-02   8.35238695E-02   8.46782103E-02
   4.99999970E-02  0.870000005      -1.89107601E-02   9.04750526E-02   9.24302563E-02
   4.99999970E-02  0.889999986      -2.56892070E-02   9.86797661E-02  0.101968780    
   4.99999970E-02  0.909999967      -3.43676731E-02  0.107583039      0.112939127    
   4.99999970E-02  0.929999948      -4.32628617E-02  0.115245916      0.123098724    
   4.99999970E-02  0.949999988      -4.30499688E-02  0.116275847      0.123989403    
   4.99999970E-02  0.969999969       8.64561927E-03   9.68975872E-02   9.72825214E-02
   4.99999970E-02  0.990000010      0.296300113       3.98220830E-02  0.298964143    
   4.99999970E-02   1.00000000       1.00000000       0.00000000       1.00000000    
   7.00000003E-02   0.00000000       0.00000000       0.00000000       0.00000000    
   7.00000003E-02   9.99999978E-03  -4.47001250E-04   1.47469022E-04   4.70698666E-04
   7.00000003E-02   2.99999993E-02  -1.42882159E-03   6.76001306E-04   1.58066722E-03
   7.00000003E-02   4.99999970E-02  -2.35622004E-03   1.63461105E-03   2.86770402E-03
   7.00000003E-02   7.00000003E-02  -3.16777988E-03   2.95670796E-03   4.33323812E-03
   7.00000003E-02   8.99999961E-02  -3.84827144E-03   4.58609592E-03   5.98677434E-03
   7.00000003E-02  0.109999999      -4.40377370E-03   6.47155941E-03   7.82779045E-03
   7.00000003E-02  0.129999995      -4.84842388E-03   8.56670737E-03   9.84356087E-03
   7.00000003E-02  0.150000006      -5.19815926E-03   1.08306268E-02   1.20134642E-02
   7.00000003E-02  0.169999987      -5.46801742E-03   1.32281017E-02   1.43136960E-02
   7.00000003E-02  0.189999998      -5.67112863E-03   1.57293268E-02   1.67204496E-02
   7.00000003E-02  0.209999993      -5.81841031E-03   1.83092840E-02   1.92115530E-02
   7.00000003E-02  0.229999989      -5.91861177E-03   2.09469609E-02   2.17670649E-02
   7.00000003E-02  0.250000000      -5.97847812E-03   2.36245506E-02   2.43692752E-02
   7.00000003E-02  0.269999981      -6.00297609E-03   2.63266936E-02   2.70024166E-02
   7.00000003E-02  0.289999992      -5.99558465E-03   2.90397927E-02   2.96522602E-02
   7.00000003E-02  0.310000002      -5.95856970E-03   3.17514390E-02   3.23057026E-02
   7.00000003E-02  0.329999983      -5.89330401E-03   3.44499648E-02   3.49504091E-02
   7.00000003E-02  0.349999994      -5.80058061E-03   3.71240899E-02   3.75745222E-02
   7.00000003E-02  0.370000005      -5.68091962E-03   3.97627279E-02   4.01664972E-02
   7.00000003E-02  0.389999986      -5.53485565E-03   4.23549041E-02   4.27150130E-02
   7.00000003E-02  0.409999967      -5.36323432E-03   4.48897555E-02   4.52090092E-02
   7.00000003E-02  0.430000007      -5.16754622E-03   4.73566726E-02   4.76377793E-02
   7.00000003E-02  0.449999988      -4.95009730E-03   4.97455746E-02   4.99912575E-02
   7.00000003E-02  0.469999969      -4.71425755E-03   5.20472340E-02   5.22602983E-02
   7.00000003E-02  0.490000010      -4.46468918E-03   5.42537421E-02   5.44371381E-02
   7.00000003E-02  0.509999990      -4.20747604E-03   5.63589856E-02   5.65158203E-02
   7.00000003E-02  0.529999971      -3.95032391E-03   5.83592467E-02   5.84927909E-02
   7.00000003E-02  0.549999952      -3.70265963E-03   6.02538437E-02   6.03675023E-02
   7.00000003E-02  0.569999993      -3.47583555E-03   6.20458052E-02   6.21430874E-02
   7.00000003E-02  0.589999974      -3.28325992E-03   6.37425780E-02   6.38270751E-02
   7.00000003E-02  0.610000014      -3.14070308E-03   6.53567910E-02   6.54322132E-02
   7.00000003E-02  0.629999995      -3.06669343E-03   6.69070333E-02   6.69772774E-02
   7.00000003E-02  0.649999976      -3.08305770E-03   6.84187114E-02   6.84881359E-02
   7.00000003E-02  0.669999957      -3.21586849E-03   6.99248761E-02   6.99987859E-02
   7.00000003E-02  0.689999998      -3.49676330E-03   7.14671612E-02   7.15526566E-02
   7.00000003E-02  0.709999979      -3.96491867E-03   7.30966181E-02   7.32040703E-02
   7.00000003E-02  0.730000019      -4.66993870E-03   7.48745650E-02   7.50200599E-02
   7.00000003E-02  0.750000000      -5.67601155E-03   7.68730193E-02   7.70822838E-02
   7.00000003E-02  0.769999981      -7.06778932E-03   7.91741014E-02   7.94889480E-02
   7.00000003E-02  0.789999962      -8.95839185E-03   8.18675458E-02   8.23562294E-02
   7.00000003E-02  0.809999943      -1.14993472E-02   8.50436985E-02   8.58176276E-02
   7.00000003E-02  0.829999983      -1.48901027E-02   8.87773633E-02   9.00174230E-02
   7.00000003E-02  0.849999964      -1.93780307E-02   9.30930376E-02   9.50884968E-02
   7.00000003E-02  0.870000005      -2.52182148E-02   9.78922993E-02  0.101088382    
   7.00000003E-02  0.889999986      -3.24978679E-02  0.102802783      0.107817084    
   7.00000003E-02  0.909999967      -4.05249633E-02  0.106864452      0.114290349    
   7.00000003E-02  0.929999948      -4.57847267E-02  0.107879639      0.117193252    
   7.00000003E-02  0.949999988      -3.48276794E-02  0.101148173      0.106976263    
   7.00000003E-02  0.969999969       4.30170782E-02   7.79315680E-02   8.90157223E-02
   7.00000003E-02  0.990000010      0.366528451       3.04064900E-02  0.367787510    
   7.00000003E-02   1.00000000       1.00000000       0.00000000       1.00000000    
   8.99999961E-02   0.00000000       0.00000000       0.00000000       0.00000000    
   8.99999961E-02   9.99999978E-03  -7.69261969E-04   1.73723281E-04   7.88634119E-04
   8.99999961E-02   2.99999993E-02  -2.25346861E-03   7.89937971E-04   2.38791178E-03
   8.99999961E-02   4.99999970E-02  -3.59451817E-03   1.89208798E-03   4.06208774E-03
   8.99999961E-02   7.00000003E-02  -4.75209858E-03   3.39042069E-03   5.83758438E-03
   8.99999961E-02   8.99999961E-02  -5.72072435E-03   5.21561550E-03   7.74140377E-03
   8.99999961E-02  0.109999999      -6.51322864E-03   7.30987079E-03   9.79062635E-03
   8.99999961E-02  0.129999995      -7.15007540E-03   9.62364301E-03   1.19890822E-02
   8.99999961E-02  0.150000006      -7.65343569E-03   1.21144745E-02   1.43295350E-02
   8.99999961E-02  0.169999987      -8.04423634E-03   1.47463288E-02   1.67977363E-02
   8.99999961E-02  0.189999998      -8.34087282E-03   1.74889192E-02   1.93760786E-02
   8.99999961E-02  0.209999993      -8.55874270E-03   2.03169212E-02   2.20460743E-02
   8.99999961E-02  0.229999989      -8.71023722E-03   2.32091136E-02   2.47897394E-02
   8.99999961E-02  0.250000000      -8.80491175E-03   2.61475332E-02   2.75902152E-02
   8.99999961E-02  0.269999981      -8.84980895E-03   2.91166585E-02   3.04318722E-02
   8.99999961E-02  0.289999992      -8.84984154E-03   3.21027040E-02   3.33001986E-02
   8.99999961E-02  0.310000002      -8.80816113E-03   3.50930244E-02   3.61815430E-02
   8.99999961E-02  0.329999983      -8.72662105E-03   3.80755961E-02   3.90628316E-02
   8.99999961E-02  0.349999994      -8.60618986E-03   4.10386585E-02   4.19313498E-02
   8.99999961E-02  0.370000005      -8.44742358E-03   4.39704731E-02   4.47745621E-02
   8.99999961E-02  0.389999986      -8.25084001E-03   4.68592197E-02   4.75800671E-02
   8.99999961E-02  0.409999967      -8.01735185E-03   4.96929921E-02   5.03355898E-02
   8.99999961E-02  0.430000007      -7.74866994E-03   5.24599291E-02   5.30291051E-02
   8.99999961E-02  0.449999988      -7.44766742E-03   5.51484227E-02   5.56490459E-02
   8.99999961E-02  0.469999969      -7.11863674E-03   5.77475056E-02   5.81846125E-02
   8.99999961E-02  0.490000010      -6.76766038E-03   6.02472425E-02   6.06261641E-02
   8.99999961E-02  0.509999990      -6.40277099E-03   6.26392439E-02   6.29656315E-02
   8.99999961E-02  0.529999971      -6.03422383E-03   6.49172366E-02   6.51970804E-02
   8.99999961E-02  0.549999952      -5.67466579E-03   6.70776889E-02   6.73172921E-02
   8.99999961E-02  0.569999993      -5.33929048E-03   6.91203922E-02   6.93263039E-02
   8.99999961E-02  0.589999974      -5.04606497E-03   7.10491538E-02   7.12281168E-02
   8.99999961E-02  0.610000014      -4.81599849E-03   7.28723705E-02   7.30313361E-02
   8.99999961E-02  0.629999995      -4.67351452E-03   7.46036172E-02   7.47498572E-02
   8.99999961E-02  0.649999976      -4.64703608E-03   7.62621537E-02   7.64036104E-02
   8.99999961E-02  0.669999957      -4.76976531E-03   7.78733045E-02   7.80192465E-02
   8.99999961E-02  0.689999998      -5.08102262E-03   7.94686377E-02   7.96309039E-02
   8.99999961E-02  0.709999979      -5.62794227E-03   8.10859203E-02   8.12809989E-02
   8.99999961E-02  0.730000019      -6.46791933E-03   8.27684253E-02   8.30207616E-02
   8.99999961E-02  0.750000000      -7.67194945E-03   8.45633224E-02   8.49106237E-02
   8.99999961E-02  0.769999981      -9.32879001E-03   8.65185857E-02   8.70200694E-02
   8.99999961E-02  0.789999962      -1.15497150E-02   8.86768252E-02   8.94258097E-02
   8.99999961E-02  0.809999943      -1.44722164E-02   9.10641849E-02   9.22069997E-02
   8.99999961E-02  0.829999983      -1.82575546E-02   9.36700925E-02   9.54328254E-02
   8.99999961E-02  0.849999964      -2.30676904E-02   9.64106917E-02   9.91319343E-02
   8.99999961E-02  0.870000005      -2.89796442E-02   9.90616232E-02  0.103213497    
   8.99999961E-02  0.889999986      -3.57180834E-02  0.101131782      0.107253991    
   8.99999961E-02  0.909999967      -4.18552756E-02  0.101619527      0.109901741    
   8.99999961E-02  0.929999948      -4.23899628E-02   9.85386968E-02  0.107269675    
   8.99999961E-02  0.949999988      -2.10642964E-02   8.81108046E-02   9.05937031E-02
   8.99999961E-02  0.969999969       7.60703236E-02   6.45095557E-02   9.97405499E-02
   8.99999961E-02  0.990000010      0.421221793       2.42871419E-02  0.421921402    
   8.99999961E-02   1.00000000       1.00000000       0.00000000       1.00000000    
  0.109999999       0.00000000       0.00000000       0.00000000       0.00000000    
  0.109999999       9.99999978E-03  -1.13317522E-03   1.89128041E-04   1.14884961E-03
  0.109999999       2.99999993E-02  -3.17938626E-03   8.60596483E-04   3.29380063E-03
  0.109999999       4.99999970E-02  -4.97031491E-03   2.05798820E-03   5.37953014E-03
  0.109999999       7.00000003E-02  -6.49464875E-03   3.67582776E-03   7.46271899E-03
  0.109999999       8.99999961E-02  -7.76355807E-03   5.63384127E-03   9.59234033E-03
  0.109999999      0.109999999      -8.80096667E-03   7.86798261E-03   1.18051749E-02
  0.109999999      0.129999995      -9.63600818E-03   1.03257075E-02   1.41234873E-02
  0.109999999      0.150000006      -1.02982447E-02   1.29634533E-02   1.65561158E-02
  0.109999999      0.169999987      -1.08150654E-02   1.57450847E-02   1.91016570E-02
  0.109999999      0.189999998      -1.12103894E-02   1.86407082E-02   2.17519850E-02
  0.109999999      0.209999993      -1.15042105E-02   2.16255877E-02   2.44951602E-02
  0.109999999      0.229999989      -1.17125865E-02   2.46791374E-02   2.73174755E-02
  0.109999999      0.250000000      -1.18478704E-02   2.77839936E-02   3.02046742E-02
  0.109999999      0.269999981      -1.19191082E-02   3.09251472E-02   3.31425704E-02
  0.109999999      0.289999992      -1.19325332E-02   3.40891629E-02   3.61172594E-02
  0.109999999      0.310000002      -1.18920598E-02   3.72635759E-02   3.91151533E-02
  0.109999999      0.329999983      -1.17998412E-02   4.04363349E-02   4.21228372E-02
  0.109999999      0.349999994      -1.16568366E-02   4.35954258E-02   4.51269634E-02
  0.109999999      0.370000005      -1.14633888E-02   4.67285886E-02   4.81141396E-02
  0.109999999      0.389999986      -1.12197744E-02   4.98232134E-02   5.10708913E-02
  0.109999999      0.409999967      -1.09267160E-02   5.28662875E-02   5.39836772E-02
  0.109999999      0.430000007      -1.05858678E-02   5.58445603E-02   5.68390340E-02
  0.109999999      0.449999988      -1.02003682E-02   5.87446988E-02   5.96237145E-02
  0.109999999      0.469999969      -9.77518968E-03   6.15537055E-02   6.23250604E-02
  0.109999999      0.490000010      -9.31749307E-03   6.42592907E-02   6.49312884E-02
  0.109999999      0.509999990      -8.83700326E-03   6.68503717E-02   6.74319267E-02
  0.109999999      0.529999971      -8.34618974E-03   6.93176761E-02   6.98183328E-02
  0.109999999      0.549999952      -7.86056742E-03   7.16542751E-02   7.20841438E-02
  0.109999999      0.569999993      -7.39876181E-03   7.38561898E-02   7.42258579E-02
  0.109999999      0.589999974      -6.98275398E-03   7.59229064E-02   7.62433410E-02
  0.109999999      0.610000014      -6.63810410E-03   7.78578520E-02   7.81403184E-02
  0.109999999      0.629999995      -6.39418419E-03   7.96687901E-02   7.99249783E-02
  0.109999999      0.649999976      -6.28468068E-03   8.13680142E-02   8.16103593E-02
  0.109999999      0.669999957      -6.34813728E-03   8.29723477E-02   8.32148418E-02