 TITLE= "TESTPLOT" 
 VARIABLES="x","y","u","v","magu" 
 ZONE T="1", I=         151 , J=          31
   0.00000000       0.00000000       1.00000000       0.00000000       1.00000000    
   4.16666679E-02   0.00000000       1.00006533       0.00000000       1.00006533    
  0.125000000       0.00000000       1.00003028       0.00000000       1.00003028    
  0.208333343       0.00000000      0.999961257       0.00000000      0.999961257    
  0.291666687       0.00000000      0.999855518       0.00000000      0.999855518    
  0.375000000       0.00000000      0.999713540       0.00000000      0.999713540    
  0.458333373       0.00000000      0.999530077       0.00000000      0.999530077    
  0.541666746       0.00000000      0.999303460       0.00000000      0.999303460    
  0.625000000       0.00000000      0.999029636       0.00000000      0.999029636    
  0.708333373       0.00000000      0.998704672       0.00000000      0.998704672    
  0.791666687       0.00000000      0.998321295       0.00000000      0.998321295    
  0.875000000       0.00000000      0.997875273       0.00000000      0.997875273    
  0.958333373       0.00000000      0.997357607       0.00000000      0.997357607    
   1.04166675       0.00000000      0.996761799       0.00000000      0.996761799    
   1.12500000       0.00000000      0.996075511       0.00000000      0.996075511    
   1.20833337       0.00000000      0.995289028       0.00000000      0.995289028    
   1.29166675       0.00000000      0.994388521       0.00000000      0.994388521    
   1.37500000       0.00000000      0.993358850       0.00000000      0.993358850    
   1.45833337       0.00000000      0.992182851       0.00000000      0.992182851    
   1.54166675       0.00000000      0.990845084       0.00000000      0.990845084    
   1.62500012       0.00000000      0.989322424       0.00000000      0.989322424    
   1.70833349       0.00000000      0.987594306       0.00000000      0.987594306    
   1.79166675       0.00000000      0.985631883       0.00000000      0.985631883    
   1.87500000       0.00000000      0.983411252       0.00000000      0.983411252    
   1.95833349       0.00000000      0.980899811       0.00000000      0.980899811    
   2.04166698       0.00000000      0.978073299       0.00000000      0.978073299    
   2.12500000       0.00000000      0.974895358       0.00000000      0.974895358    
   2.20833349       0.00000000      0.971342087       0.00000000      0.971342087    
   2.29166675       0.00000000      0.967380404       0.00000000      0.967380404    
   2.37500000       0.00000000      0.962995946       0.00000000      0.962995946    
   2.45833349       0.00000000      0.958168507       0.00000000      0.958168507    
   2.50999999       0.00000000      0.954914868       0.00000000      0.954914868    
   2.52999997       0.00000000      0.953626871       0.00000000      0.953626871    
   2.54999995       0.00000000      0.952314496       0.00000000      0.952314496    
   2.56999993       0.00000000      0.950977921       0.00000000      0.950977921    
   2.58999991       0.00000000      0.949617684       0.00000000      0.949617684    
   2.60999990       0.00000000      0.948234081       0.00000000      0.948234081    
   2.63000011       0.00000000      0.946828008       0.00000000      0.946828008    
   2.65000010       0.00000000      0.945399821       0.00000000      0.945399821    
   2.67000008       0.00000000      0.943950534       0.00000000      0.943950534    
   2.69000006       0.00000000      0.942480564       0.00000000      0.942480564    
   2.71000004       0.00000000      0.940991282       0.00000000      0.940991282    
   2.73000002       0.00000000      0.939483285       0.00000000      0.939483285    
   2.75000000       0.00000000      0.937957883       0.00000000      0.937957883    
   2.76999998       0.00000000      0.936415851       0.00000000      0.936415851    
   2.78999996       0.00000000      0.934858799       0.00000000      0.934858799    
   2.80999994       0.00000000      0.933287382       0.00000000      0.933287382    
   2.82999992       0.00000000      0.931703508       0.00000000      0.931703508    
   2.84999990       0.00000000      0.930107951       0.00000000      0.930107951    
   2.86999989       0.00000000      0.928502798       0.00000000      0.928502798    
   2.89000010       0.00000000      0.926888943       0.00000000      0.926888943    
   2.91000009       0.00000000      0.925268531       0.00000000      0.925268531    
   2.93000007       0.00000000      0.923642516       0.00000000      0.923642516    
   2.95000005       0.00000000      0.922013044       0.00000000      0.922013044    
   2.97000003       0.00000000      0.920381129       0.00000000      0.920381129    
   2.99000001       0.00000000      0.918749154       0.00000000      0.918749154    
   3.00999999       0.00000000      0.917117953       0.00000000      0.917117953    
   3.02999997       0.00000000      0.915490031       0.00000000      0.915490031    
   3.04999995       0.00000000      0.913866162       0.00000000      0.913866162    
   3.06999993       0.00000000      0.912248671       0.00000000      0.912248671    
   3.08999991       0.00000000      0.910638332       0.00000000      0.910638332    
   3.10999990       0.00000000      0.909037590       0.00000000      0.909037590    
   3.12999988       0.00000000      0.907446980       0.00000000      0.907446980    
   3.14999986       0.00000000      0.905868948       0.00000000      0.905868948    
   3.17000008       0.00000000      0.904303849       0.00000000      0.904303849    
   3.19000006       0.00000000      0.902754068       0.00000000      0.902754068    
   3.21000004       0.00000000      0.901219964       0.00000000      0.901219964    
   3.23000002       0.00000000      0.899703622       0.00000000      0.899703622    
   3.25000000       0.00000000      0.898205161       0.00000000      0.898205161    
   3.26999998       0.00000000      0.896726847       0.00000000      0.896726847    
   3.28999996       0.00000000      0.895268321       0.00000000      0.895268321    
   3.30999994       0.00000000      0.893831730       0.00000000      0.893831730    
   3.32999992       0.00000000      0.892416596       0.00000000      0.892416596    
   3.34999990       0.00000000      0.891025066       0.00000000      0.891025066    
   3.36999989       0.00000000      0.889656305       0.00000000      0.889656305    
   3.39000010       0.00000000      0.888312221       0.00000000      0.888312221    
   3.41000009       0.00000000      0.886992157       0.00000000      0.886992157    
   3.43000007       0.00000000      0.885697961       0.00000000      0.885697961    
   3.45000005       0.00000000      0.884428203       0.00000000      0.884428203    
   3.47000003       0.00000000      0.883185029       0.00000000      0.883185029    
   3.49000001       0.00000000      0.881966949       0.00000000      0.881966949    
   3.52500010       0.00000000      0.879913509       0.00000000      0.879913509    
   3.57499981       0.00000000      0.877096057       0.00000000      0.877096057    
   3.62500000       0.00000000      0.874443531       0.00000000      0.874443531    
   3.67500019       0.00000000      0.871947885       0.00000000      0.871947885    
   3.72499990       0.00000000      0.869611204       0.00000000      0.869611204    
   3.77500010       0.00000000      0.867421985       0.00000000      0.867421985    
   3.82499981       0.00000000      0.865380645       0.00000000      0.865380645    
   3.87500000       0.00000000      0.863473415       0.00000000      0.863473415    
   3.92500019       0.00000000      0.861701846       0.00000000      0.861701846    
   3.97499990       0.00000000      0.860049784       0.00000000      0.860049784    
   4.02500010       0.00000000      0.858519912       0.00000000      0.858519912    
   4.07499981       0.00000000      0.857094884       0.00000000      0.857094884    
   4.12500000       0.00000000      0.855778456       0.00000000      0.855778456    
   4.17500019       0.00000000      0.854551792       0.00000000      0.854551792    
   4.22499990       0.00000000      0.853421390       0.00000000      0.853421390    
   4.27500010       0.00000000      0.852367043       0.00000000      0.852367043    
   4.32499981       0.00000000      0.851397634       0.00000000      0.851397634    
   4.37500000       0.00000000      0.850491881       0.00000000      0.850491881    
   4.42500019       0.00000000      0.849660516       0.00000000      0.849660516    
   4.47499990       0.00000000      0.848882198       0.00000000      0.848882198    
   4.52500010       0.00000000      0.848169327       0.00000000      0.848169327    
   4.57499981       0.00000000      0.847500443       0.00000000      0.847500443    
   4.62500000       0.00000000      0.846887529       0.00000000      0.846887529    
   4.67500019       0.00000000      0.846311748       0.00000000      0.846311748    
   4.72499990       0.00000000      0.845783472       0.00000000      0.845783472    
   4.77500010       0.00000000      0.845287800       0.00000000      0.845287800    
   4.82499981       0.00000000      0.844829679       0.00000000      0.844829679    
   4.87500000       0.00000000      0.844402194       0.00000000      0.844402194    
   4.92500019       0.00000000      0.843999386       0.00000000      0.843999386    
   4.97499990       0.00000000      0.843627930       0.00000000      0.843627930    
   5.02500010       0.00000000      0.843265414       0.00000000      0.843265414    
   5.07499981       0.00000000      0.842939436       0.00000000      0.842939436    
   5.12500000       0.00000000      0.842606068       0.00000000      0.842606068    
   5.17500019       0.00000000      0.842317760       0.00000000      0.842317760    
   5.22499990       0.00000000      0.842007756       0.00000000      0.842007756    
   5.27500010       0.00000000      0.841751099       0.00000000      0.841751099    
   5.32499981       0.00000000      0.841461301       0.00000000      0.841461301    
   5.37500000       0.00000000      0.841226697       0.00000000      0.841226697    
   5.42500019       0.00000000      0.840959489       0.00000000      0.840959489    
   5.47499990       0.00000000      0.840737224       0.00000000      0.840737224    
   5.52500010       0.00000000      0.840497792       0.00000000      0.840497792    
   5.57500029       0.00000000      0.840277612       0.00000000      0.840277612    
   5.62500000       0.00000000      0.840067863       0.00000000      0.840067863    
   5.67500019       0.00000000      0.839844286       0.00000000      0.839844286    
   5.72499990       0.00000000      0.839658916       0.00000000      0.839658916    
   5.77500010       0.00000000      0.839437008       0.00000000      0.839437008    
   5.82499981       0.00000000      0.839261055       0.00000000      0.839261055    
   5.87500000       0.00000000      0.839052200       0.00000000      0.839052200    
   5.92500019       0.00000000      0.838872671       0.00000000      0.838872671    
   5.97499990       0.00000000      0.838682532       0.00000000      0.838682532    
   6.02500010       0.00000000      0.838497102       0.00000000      0.838497102    
   6.07500029       0.00000000      0.838319182       0.00000000      0.838319182    
   6.12500000       0.00000000      0.838135183       0.00000000      0.838135183    
   6.17499971       0.00000000      0.837959528       0.00000000      0.837959528    
   6.22499990       0.00000000      0.837781191       0.00000000      0.837781191    
   6.27500010       0.00000000      0.837606251       0.00000000      0.837606251    
   6.32499981       0.00000000      0.837433338       0.00000000      0.837433338    
   6.37500000       0.00000000      0.837263346       0.00000000      0.837263346    
   6.42500019       0.00000000      0.837097406       0.00000000      0.837097406    
   6.47499990       0.00000000      0.836935878       0.00000000      0.836935878    
   6.52500010       0.00000000      0.836782098       0.00000000      0.836782098    
   6.57499981       0.00000000      0.836635351       0.00000000      0.836635351    
   6.62500000       0.00000000      0.836499155       0.00000000      0.836499155    
   6.67499971       0.00000000      0.836374223       0.00000000      0.836374223    
   6.72499990       0.00000000      0.836263180       0.00000000      0.836263180    
   6.77500010       0.00000000      0.836167097       0.00000000      0.836167097    
   6.82500029       0.00000000      0.836087108       0.00000000      0.836087108    
   6.87500000       0.00000000      0.836025119       0.00000000      0.836025119    
   6.92500019       0.00000000      0.835985005       0.00000000      0.835985005    
   6.97499990       0.00000000      0.835966110       0.00000000      0.835966110    
   0.00000000       3.33333351E-02   1.00000000       0.00000000       1.00000000    
   4.16666679E-02   3.33333351E-02   1.00006533      -5.22678274E-05   1.00006533    
  0.125000000       3.33333351E-02   1.00003028       8.03235089E-05   1.00003028    
  0.208333343       3.33333351E-02  0.999961257      -2.51478505E-05  0.999961257    
  0.291666687       3.33333351E-02  0.999855518       1.09706969E-04  0.999855518    
  0.375000000       3.33333351E-02  0.999713540       3.84040823E-06  0.999713540    
  0.458333373       3.33333351E-02  0.999530077       1.42910809E-04  0.999530077    
  0.541666746       3.33333351E-02  0.999303460       3.83707047E-05  0.999303460    
  0.625000000       3.33333351E-02  0.999029636       1.80644362E-04  0.999029696    
  0.708333373       3.33333351E-02  0.998704672       7.92917199E-05  0.998704672    
  0.791666687       3.33333351E-02  0.998321295       2.27439363E-04  0.998321295    
  0.875000000       3.33333351E-02  0.997875273       1.29309861E-04  0.997875273    
  0.958333373       3.33333351E-02  0.997357607       2.84818030E-04  0.997357607    
   1.04166675       3.33333351E-02  0.996761799       1.91825224E-04  0.996761858    
   1.12500000       3.33333351E-02  0.996075511       3.57187440E-04  0.996075571    
   1.20833337       3.33333351E-02  0.995289028       2.71947385E-04  0.995289028    
   1.29166675       3.33333351E-02  0.994388521       4.48426756E-04  0.994388580    
   1.37500000       3.33333351E-02  0.993358850       3.75333620E-04  0.993358910    
   1.45833337       3.33333351E-02  0.992182851       5.65444469E-04  0.992182970    
   1.54166675       3.33333351E-02  0.990845084       5.04726719E-04  0.990845203    
   1.62500012       3.33333351E-02  0.989322424       7.13327085E-04  0.989322722    
   1.70833349       3.33333351E-02  0.987594306       6.69141940E-04  0.987594545    
   1.79166675       3.33333351E-02  0.985631883       9.00745159E-04  0.985632300    
   1.87500000       3.33333351E-02  0.983411252       8.75713129E-04  0.983411670    
   1.95833349       3.33333351E-02  0.980899811       1.13336532E-03  0.980900466    
   2.04166698       3.33333351E-02  0.978073299       1.12780184E-03  0.978073955    
   2.12500000       3.33333351E-02  0.974895358       1.41451915E-03  0.974896431    
   2.20833349       3.33333351E-02  0.971342087       1.42813637E-03  0.971343160    
   2.29166675       3.33333351E-02  0.967380404       1.74109091E-03  0.967382014    
   2.37500000       3.33333351E-02  0.962995946       1.76642800E-03  0.962997556    
   2.45833349       3.33333351E-02  0.958168507       2.09545949E-03  0.958170831    
   2.50999999       3.33333351E-02  0.954914868       2.11430108E-03  0.954917252    
   2.52999997       3.33333351E-02  0.953626871       2.17868108E-03  0.953629375    
   2.54999995       3.33333351E-02  0.952314496       2.19525932E-03  0.952317059    
   2.56999993       3.33333351E-02  0.950977921       2.25992175E-03  0.950980604    
   2.58999991       3.33333351E-02  0.949617684       2.27382244E-03  0.949620426    
   2.60999990       3.33333351E-02  0.948234081       2.33781361E-03  0.948236942    
   2.63000011       3.33333351E-02  0.946828008       2.34854710E-03  0.946830928    
   2.65000010       3.33333351E-02  0.945399821       2.41188286E-03  0.945402920    
   2.67000008       3.33333351E-02  0.943950534       2.41877651E-03  0.943953633    
   2.69000006       3.33333351E-02  0.942480564       2.48072948E-03  0.942483842    
   2.71000004       3.33333351E-02  0.940991282       2.48318864E-03  0.940994561    
   2.73000002       3.33333351E-02  0.939483285       2.54334044E-03  0.939486742    
   2.75000000       3.33333351E-02  0.937957883       2.54092296E-03  0.937961280    
   2.76999998       3.33333351E-02  0.936415851       2.59902375E-03  0.936419427    
   2.78999996       3.33333351E-02  0.934858799       2.59092264E-03  0.934862375    
   2.80999994       3.33333351E-02  0.933287382       2.64685228E-03  0.933291137    
   2.82999992       3.33333351E-02  0.931703508       2.63251038E-03  0.931707203    
   2.84999990       3.33333351E-02  0.930107951       2.68568215E-03  0.930111825    
   2.86999989       3.33333351E-02  0.928502798       2.66457419E-03  0.928506613    
   2.89000010       3.33333351E-02  0.926888943       2.71475990E-03  0.926892936    
   2.91000009       3.33333351E-02  0.925268531       2.68649030E-03  0.925272405    
   2.93000007       3.33333351E-02  0.923642516       2.73361825E-03  0.923646569    
   2.95000005       3.33333351E-02  0.922013044       2.69784103E-03  0.922016978    
   2.97000003       3.33333351E-02  0.920381129       2.74174497E-03  0.920385242    
   2.99000001       3.33333351E-02  0.918749154       2.69810762E-03  0.918753088    
   3.00999999       3.33333351E-02  0.917117953       2.73903832E-03  0.917122066    
   3.02999997       3.33333351E-02  0.915490031       2.68747844E-03  0.915493965    
   3.04999995       3.33333351E-02  0.913866162       2.72557209E-03  0.913870215    
   3.06999993       3.33333351E-02  0.912248671       2.66606291E-03  0.912252545    
   3.08999991       3.33333351E-02  0.910638332       2.70181685E-03  0.910642326    
   3.10999990       3.33333351E-02  0.909037590       2.63411109E-03  0.909041405    
   3.12999988       3.33333351E-02  0.907446980       2.66798795E-03  0.907450914    
   3.14999986       3.33333351E-02  0.905868948       2.59233778E-03  0.905872643    
   3.17000008       3.33333351E-02  0.904303849       2.62478855E-03  0.904307663    
   3.19000006       3.33333351E-02  0.902754068       2.54113134E-03  0.902757645    
   3.21000004       3.33333351E-02  0.901219964       2.57295347E-03  0.901223660    
   3.23000002       3.33333351E-02  0.899703622       2.48160586E-03  0.899707019    
   3.25000000       3.33333351E-02  0.898205161       2.51337630E-03  0.898208678    
   3.26999998       3.33333351E-02  0.896726847       2.41478090E-03  0.896730125    
   3.28999996       3.33333351E-02  0.895268321       2.44733714E-03  0.895271659    
   3.30999994       3.33333351E-02  0.893831730       2.34171655E-03  0.893834829    
   3.32999992       3.33333351E-02  0.892416596       2.37557851E-03  0.892419755    
   3.34999990       3.33333351E-02  0.891025066       2.26330943E-03  0.891027927    
   3.36999989       3.33333351E-02  0.889656305       2.29950086E-03  0.889659286    
   3.39000010       3.33333351E-02  0.888312221       2.18079751E-03  0.888314903    
   3.41000009       3.33333351E-02  0.886992157       2.21992098E-03  0.886994958    
   3.43000007       3.33333351E-02  0.885697961       2.09465646E-03  0.885700464    
   3.45000005       3.33333351E-02  0.884428203       2.13814224E-03  0.884430826    
   3.47000003       3.33333351E-02  0.883185029       2.00606557E-03  0.883187294    
   3.49000001       3.33333351E-02  0.881966949       2.05480447E-03  0.881969333    
   3.52500010       3.33333351E-02  0.879913509       1.91618071E-03  0.879915595    
   3.57499981       3.33333351E-02  0.877096057       1.84060587E-03  0.877097964    
   3.62500000       3.33333351E-02  0.874443531       1.69614109E-03  0.874445140    
   3.67500019       3.33333351E-02  0.871947885       1.63147110E-03  0.871949434    
   3.72499990       3.33333351E-02  0.869611204       1.48432027E-03  0.869612455    
   3.77500010       3.33333351E-02  0.867421985       1.43480161E-03  0.867423177    
   3.82499981       3.33333351E-02  0.865380645       1.28705695E-03  0.865381598    
   3.87500000       3.33333351E-02  0.863473415       1.25606346E-03  0.863474309    
   3.92500019       3.33333351E-02  0.861701846       1.10613659E-03  0.861702561    
   3.97499990       3.33333351E-02  0.860049784       1.09680695E-03  0.860050499    
   4.02500010       3.33333351E-02  0.858519912       9.43193154E-04  0.858520448    
   4.07499981       3.33333351E-02  0.857094884       9.56873933E-04  0.857095420    
   4.12500000       3.33333351E-02  0.855778456       7.98594090E-04  0.855778873    
   4.17500019       3.33333351E-02  0.854551792       8.37105035E-04  0.854552209    
   4.22499990       3.33333351E-02  0.853421390       6.70190377E-04  0.853421628    
   4.27500010       3.33333351E-02  0.852367043       7.35781447E-04  0.852367342    
   4.32499981       3.33333351E-02  0.851397634       5.56810701E-04  0.851397812    
   4.37500000       3.33333351E-02  0.850491881       6.51034294E-04  0.850492120    
   4.42500019       3.33333351E-02  0.849660516       4.57565096E-04  0.849660635    
   4.47499990       3.33333351E-02  0.848882198       5.80342661E-04  0.848882377    
   4.52500010       3.33333351E-02  0.848169327       3.70213587E-04  0.848169386    
   4.57499981       3.33333351E-02  0.847500443       5.21804381E-04  0.847500622    
   4.62500000       3.33333351E-02  0.846887529       2.95520615E-04  0.846887529    
   4.67500019       3.33333351E-02  0.846311748       4.72291082E-04  0.846311867    
   4.72499990       3.33333351E-02  0.845783472       2.32154096E-04  0.845783532    
   4.77500010       3.33333351E-02  0.845287800       4.28840343E-04  0.845287919    
   4.82499981       3.33333351E-02  0.844829679       1.82176358E-04  0.844829738    
   4.87500000       3.33333351E-02  0.844402194       3.87925073E-04  0.844402313    
   4.92500019       3.33333351E-02  0.843999386       1.49234518E-04  0.843999386    
   4.97499990       3.33333351E-02  0.843627930       3.45997454E-04  0.843627989    
   5.02500010       3.33333351E-02  0.843265414       1.37468392E-04  0.843265414    
   5.07499981       3.33333351E-02  0.842939436       2.97340448E-04  0.842939496    
   5.12500000       3.33333351E-02  0.842606068       1.47217565E-04  0.842606068    
   5.17500019       3.33333351E-02  0.842317760       2.37280779E-04  0.842317760    
   5.22499990       3.33333351E-02  0.842007756       1.76110159E-04  0.842007756    
   5.27500010       3.33333351E-02  0.841751099       1.66213431E-04  0.841751099    
   5.32499981       3.33333351E-02  0.841461301       2.20332891E-04  0.841461301    
   5.37500000       3.33333351E-02  0.841226697       9.24850247E-05  0.841226697    
   5.42500019       3.33333351E-02  0.840959489       2.63881870E-04  0.840959549    
   5.47499990       3.33333351E-02  0.840737224       3.25369365E-05  0.840737224    
   5.52500010       3.33333351E-02  0.840497792       2.86840601E-04  0.840497792    
   5.57500029       3.33333351E-02  0.840277612       6.79917775E-06  0.840277612    
   5.62500000       3.33333351E-02  0.840067863       2.72969803E-04  0.840067863    
   5.67500019       3.33333351E-02  0.839844286       2.52492082E-05  0.839844286    
   5.72499990       3.33333351E-02  0.839658916       2.22028553E-04  0.839658976    
   5.77500010       3.33333351E-02  0.839437008       7.40348114E-05  0.839437008    
   5.82499981       3.33333351E-02  0.839261055       1.60655851E-04  0.839261055    
   5.87500000       3.33333351E-02  0.839052200       1.17894982E-04  0.839052200    
   5.92500019       3.33333351E-02  0.838872671       1.21672630E-04  0.838872671    
   5.97499990       3.33333351E-02  0.838682532       1.32022935E-04  0.838682532    
   6.02500010       3.33333351E-02  0.838497102       1.15428462E-04  0.838497102    
   6.07500029       3.33333351E-02  0.838319182       1.21936377E-04  0.838319182    
   6.12500000       3.33333351E-02  0.838135183       1.23650650E-04  0.838135183    
   6.17499971       3.33333351E-02  0.837959528       1.10874964E-04  0.837959528    
   6.22499990       3.33333351E-02  0.837781191       1.27116640E-04  0.837781191    
   6.27500010       3.33333351E-02  0.837606251       1.06487292E-04  0.837606251    
   6.32499981       3.33333351E-02  0.837433338       1.24385537E-04  0.837433338    
   6.37500000       3.33333351E-02  0.837263346       1.02560516E-04  0.837263346    
   6.42500019       3.33333351E-02  0.837097406       1.19042576E-04  0.837097406    
   6.47499990       3.33333351E-02  0.836935878       9.67608357E-05  0.836935878    
   6.52500010       3.33333351E-02  0.836782098       1.08677421E-04  0.836782098    
   6.57499981       3.33333351E-02  0.836635351       8.75151090E-05  0.836635351    
   6.62500000       3.33333351E-02  0.836499155       9.45950233E-05  0.836499155    
   6.67499971       3.33333351E-02  0.836374223       7.25055288E-05  0.836374223    
   6.72499990       3.33333351E-02  0.836263180       7.62392228E-05  0.836263180    
   6.77500010       3.33333351E-02  0.836167097       5.27038173E-05  0.836167097    
   6.82500029       3.33333351E-02  0.836087108       5.50975892E-05  0.836087108    
   6.87500000       3.33333351E-02  0.836025119       3.00383217E-05  0.836025119    
   6.92500019       3.33333351E-02  0.835985005       3.16122387E-05  0.835985005    
   6.97499990       3.33333351E-02  0.835966110       7.86935652E-06  0.835966110    
   0.00000000      0.100000009       1.00000000       0.00000000       1.00000000    
   4.16666679E-02  0.100000009       1.00006914      -1.59890173E-04   1.00006914    
  0.125000000      0.100000009       1.00003564       2.42847949E-04   1.00003564    
  0.208333343      0.100000009      0.999967694      -7.81615890E-05  0.999967694    
  0.291666687      0.100000009      0.999863267       3.30815266E-04  0.999863327    
  0.375000000      0.100000009      0.999722004       9.18513342E-06  0.999722004    
  0.458333373      0.100000009      0.999541402       4.28765459E-04  0.999541521    
  0.541666746      0.100000009      0.999318600       1.12072768E-04  0.999318600    
  0.625000000      0.100000009      0.999047279       5.42929978E-04  0.999047399    
  0.708333373      0.100000009      0.998725533       2.34378793E-04  0.998725533    
  0.791666687      0.100000009      0.998347163       6.81725796E-04  0.998347402    
  0.875000000      0.100000009      0.997907043       3.83897423E-04  0.997907102    
  0.958333373      0.100000009      0.997396231       8.53011268E-04  0.997396588    
   1.04166675      0.100000009      0.996806800       5.71725424E-04  0.996806920    
   1.12500000      0.100000009      0.996127367       1.06979767E-03  0.996127963    
   1.20833337      0.100000009      0.995348573       8.11528997E-04  0.995348930    
   1.29166675      0.100000009      0.994455934       1.34331523E-03  0.994456828    
   1.37500000      0.100000009      0.993439078       1.11763657E-03  0.993439674    
   1.45833337      0.100000009      0.992278337       1.69251999E-03  0.992279768    
   1.54166675      0.100000009      0.990955591       1.50593161E-03  0.990956724    
   1.62500012      0.100000009      0.989447594       2.13657040E-03  0.989449918    
   1.70833349      0.100000009      0.987734079       1.99914724E-03  0.987736106    
   1.79166675      0.100000009      0.985788047       2.69738538E-03  0.985791743    
   1.87500000      0.100000009      0.983586669       2.61659198E-03  0.983590186    
   1.95833349      0.100000009      0.981096923       3.39328684E-03  0.981102765    
   2.04166698      0.100000009      0.978290915       3.37383430E-03  0.978296757    
   2.12500000      0.100000009      0.975132108       4.23781015E-03  0.975141287    
   2.20833349      0.100000009      0.971597195       4.27536666E-03  0.971606612    
   2.29166675      0.100000009      0.967650771       5.22021856E-03  0.967664838    
   2.37500000      0.100000009      0.963274002       5.29616792E-03  0.963288546    
   2.45833349      0.100000009      0.958444953       6.29080972E-03  0.958465576    
   2.50999999      0.100000009      0.955184221       6.34791888E-03  0.955205321    
   2.52999997      0.100000009      0.953892708       6.54279348E-03  0.953915119    
   2.54999995      0.100000009      0.952576041       6.59345463E-03  0.952598810    
   2.56999993      0.100000009      0.951234460       6.78866962E-03  0.951258719    
   2.58999991      0.100000009      0.949868500       6.83161709E-03  0.949893057    
   2.60999990      0.100000009      0.948478341       7.02525117E-03  0.948504388    
   2.63000011      0.100000009      0.947064996       7.05837924E-03  0.947091341    
   2.65000010      0.100000009      0.945628643       7.24995695E-03  0.945656478    
   2.67000008      0.100000009      0.944170475       7.27152033E-03  0.944198489    
   2.69000006      0.100000009      0.942690909       7.45915156E-03  0.942720413    
   2.71000004      0.100000009      0.941191196       7.46737048E-03  0.941220820    
   2.73000002      0.100000009      0.939671755       7.65003124E-03  0.939702928    
   2.75000000      0.100000009      0.938134313       7.64327589E-03  0.938165486    
   2.76999998      0.100000009      0.936579227       7.81977735E-03  0.936611891    