 TITLE= "TESTPLOT" 
 VARIABLES="x","y","u","v","magu" 
 ZONE T="1", I=         151 , J=          31
   0.00000000       0.00000000       1.00000000       0.00000000       1.00000000    
   4.16666679E-02   0.00000000       1.00004828       0.00000000       1.00004828    
  0.125000000       0.00000000       1.00013089       0.00000000       1.00013089    
  0.208333343       0.00000000       1.00018263       0.00000000       1.00018263    
  0.291666687       0.00000000       1.00019670       0.00000000       1.00019670    
  0.375000000       0.00000000       1.00016642       0.00000000       1.00016642    
  0.458333373       0.00000000       1.00008988       0.00000000       1.00008988    
  0.541666746       0.00000000      0.999971151       0.00000000      0.999971151    
  0.625000000       0.00000000      0.999817014       0.00000000      0.999817014    
  0.708333373       0.00000000      0.999632001       0.00000000      0.999632001    
  0.791666687       0.00000000      0.999416471       0.00000000      0.999416471    
  0.875000000       0.00000000      0.999167740       0.00000000      0.999167740    
  0.958333373       0.00000000      0.998881400       0.00000000      0.998881400    
   1.04166675       0.00000000      0.998550892       0.00000000      0.998550892    
   1.12500000       0.00000000      0.998168886       0.00000000      0.998168886    
   1.20833337       0.00000000      0.997728527       0.00000000      0.997728527    
   1.29166675       0.00000000      0.997219920       0.00000000      0.997219920    
   1.37500000       0.00000000      0.996633768       0.00000000      0.996633768    
   1.45833337       0.00000000      0.995959401       0.00000000      0.995959401    
   1.54166675       0.00000000      0.995184004       0.00000000      0.995184004    
   1.62500012       0.00000000      0.994295478       0.00000000      0.994295478    
   1.70833349       0.00000000      0.993278980       0.00000000      0.993278980    
   1.79166675       0.00000000      0.992119312       0.00000000      0.992119312    
   1.87500000       0.00000000      0.990800440       0.00000000      0.990800440    
   1.95833349       0.00000000      0.989304662       0.00000000      0.989304662    
   2.04166698       0.00000000      0.987618446       0.00000000      0.987618446    
   2.12500000       0.00000000      0.985718250       0.00000000      0.985718250    
   2.20833349       0.00000000      0.983605266       0.00000000      0.983605266    
   2.29166675       0.00000000      0.981249213       0.00000000      0.981249213    
   2.37500000       0.00000000      0.978674114       0.00000000      0.978674114    
   2.45833349       0.00000000      0.975852251       0.00000000      0.975852251    
   2.50999999       0.00000000      0.974014401       0.00000000      0.974014401    
   2.52999997       0.00000000      0.973326921       0.00000000      0.973326921    
   2.54999995       0.00000000      0.972625077       0.00000000      0.972625077    
   2.56999993       0.00000000      0.971911073       0.00000000      0.971911073    
   2.58999991       0.00000000      0.971186399       0.00000000      0.971186399    
   2.60999990       0.00000000      0.970452189       0.00000000      0.970452189    
   2.63000011       0.00000000      0.969709635       0.00000000      0.969709635    
   2.65000010       0.00000000      0.968959689       0.00000000      0.968959689    
   2.67000008       0.00000000      0.968203306       0.00000000      0.968203306    
   2.69000006       0.00000000      0.967441678       0.00000000      0.967441678    
   2.71000004       0.00000000      0.966676116       0.00000000      0.966676116    
   2.73000002       0.00000000      0.965908289       0.00000000      0.965908289    
   2.75000000       0.00000000      0.965139568       0.00000000      0.965139568    
   2.76999998       0.00000000      0.964371741       0.00000000      0.964371741    
   2.78999996       0.00000000      0.963606238       0.00000000      0.963606238    
   2.80999994       0.00000000      0.962844551       0.00000000      0.962844551    
   2.82999992       0.00000000      0.962088227       0.00000000      0.962088227    
   2.84999990       0.00000000      0.961338878       0.00000000      0.961338878    
   2.86999989       0.00000000      0.960598588       0.00000000      0.960598588    
   2.89000010       0.00000000      0.959869146       0.00000000      0.959869146    
   2.91000009       0.00000000      0.959152639       0.00000000      0.959152639    
   2.93000007       0.00000000      0.958450913       0.00000000      0.958450913    
   2.95000005       0.00000000      0.957766175       0.00000000      0.957766175    
   2.97000003       0.00000000      0.957099795       0.00000000      0.957099795    
   2.99000001       0.00000000      0.956453919       0.00000000      0.956453919    
   3.00999999       0.00000000      0.955830097       0.00000000      0.955830097    
   3.02999997       0.00000000      0.955230713       0.00000000      0.955230713    
   3.04999995       0.00000000      0.954656839       0.00000000      0.954656839    
   3.06999993       0.00000000      0.954111576       0.00000000      0.954111576    
   3.08999991       0.00000000      0.953595400       0.00000000      0.953595400    
   3.10999990       0.00000000      0.953111649       0.00000000      0.953111649    
   3.12999988       0.00000000      0.952660739       0.00000000      0.952660739    
   3.14999986       0.00000000      0.952245593       0.00000000      0.952245593    
   3.17000008       0.00000000      0.951866508       0.00000000      0.951866508    
   3.19000006       0.00000000      0.951526165       0.00000000      0.951526165    
   3.21000004       0.00000000      0.951224566       0.00000000      0.951224566    
   3.23000002       0.00000000      0.950964749       0.00000000      0.950964749    
   3.25000000       0.00000000      0.950745463       0.00000000      0.950745463    
   3.26999998       0.00000000      0.950570107       0.00000000      0.950570107    
   3.28999996       0.00000000      0.950436711       0.00000000      0.950436711    
   3.30999994       0.00000000      0.950348496       0.00000000      0.950348496    
   3.32999992       0.00000000      0.950303197       0.00000000      0.950303197    
   3.34999990       0.00000000      0.950303674       0.00000000      0.950303674    
   3.36999989       0.00000000      0.950347424       0.00000000      0.950347424    
   3.39000010       0.00000000      0.950437188       0.00000000      0.950437188    
   3.41000009       0.00000000      0.950569391       0.00000000      0.950569391    
   3.43000007       0.00000000      0.950747132       0.00000000      0.950747132    
   3.45000005       0.00000000      0.950966239       0.00000000      0.950966239    
   3.47000003       0.00000000      0.951229393       0.00000000      0.951229393    
   3.49000001       0.00000000      0.951531351       0.00000000      0.951531351    
   3.52500010       0.00000000      0.952175140       0.00000000      0.952175140    
   3.57499981       0.00000000      0.953280210       0.00000000      0.953280210    
   3.62500000       0.00000000      0.954595208       0.00000000      0.954595208    
   3.67500019       0.00000000      0.956092596       0.00000000      0.956092596    
   3.72499990       0.00000000      0.957742989       0.00000000      0.957742989    
   3.77500010       0.00000000      0.959516406       0.00000000      0.959516406    
   3.82499981       0.00000000      0.961383283       0.00000000      0.961383283    
   3.87500000       0.00000000      0.963314831       0.00000000      0.963314831    
   3.92500019       0.00000000      0.965283513       0.00000000      0.965283513    
   3.97499990       0.00000000      0.967263579       0.00000000      0.967263579    
   4.02500010       0.00000000      0.969232798       0.00000000      0.969232798    
   4.07499981       0.00000000      0.971172214       0.00000000      0.971172214    
   4.12500000       0.00000000      0.973066151       0.00000000      0.973066151    
   4.17500019       0.00000000      0.974902272       0.00000000      0.974902272    
   4.22499990       0.00000000      0.976670563       0.00000000      0.976670563    
   4.27500010       0.00000000      0.978363514       0.00000000      0.978363514    
   4.32499981       0.00000000      0.979975581       0.00000000      0.979975581    
   4.37500000       0.00000000      0.981503606       0.00000000      0.981503606    
   4.42500019       0.00000000      0.982946038       0.00000000      0.982946038    
   4.47499990       0.00000000      0.984302938       0.00000000      0.984302938    
   4.52500010       0.00000000      0.985574961       0.00000000      0.985574961    
   4.57499981       0.00000000      0.986763537       0.00000000      0.986763537    
   4.62500000       0.00000000      0.987871528       0.00000000      0.987871528    
   4.67500019       0.00000000      0.988901734       0.00000000      0.988901734    
   4.72499990       0.00000000      0.989858031       0.00000000      0.989858031    
   4.77500010       0.00000000      0.990743876       0.00000000      0.990743876    
   4.82499981       0.00000000      0.991562843       0.00000000      0.991562843    
   4.87500000       0.00000000      0.992318690       0.00000000      0.992318690    
   4.92500019       0.00000000      0.993015230       0.00000000      0.993015230    
   4.97499990       0.00000000      0.993656158       0.00000000      0.993656158    
   5.02500010       0.00000000      0.994245052       0.00000000      0.994245052    
   5.07499981       0.00000000      0.994785607       0.00000000      0.994785607    
   5.12500000       0.00000000      0.995280743       0.00000000      0.995280743    
   5.17500019       0.00000000      0.995733738       0.00000000      0.995733738    
   5.22499990       0.00000000      0.996147633       0.00000000      0.996147633    
   5.27500010       0.00000000      0.996525168       0.00000000      0.996525168    
   5.32499981       0.00000000      0.996869087       0.00000000      0.996869087    
   5.37500000       0.00000000      0.997181773       0.00000000      0.997181773    
   5.42500019       0.00000000      0.997465789       0.00000000      0.997465789    
   5.47499990       0.00000000      0.997723222       0.00000000      0.997723222    
   5.52500010       0.00000000      0.997956097       0.00000000      0.997956097    
   5.57500029       0.00000000      0.998166025       0.00000000      0.998166025    
   5.62500000       0.00000000      0.998355150       0.00000000      0.998355150    
   5.67500019       0.00000000      0.998524785       0.00000000      0.998524785    
   5.72499990       0.00000000      0.998676538       0.00000000      0.998676538    
   5.77500010       0.00000000      0.998811960       0.00000000      0.998811960    
   5.82499981       0.00000000      0.998932481       0.00000000      0.998932481    
   5.87500000       0.00000000      0.999039233       0.00000000      0.999039233    
   5.92500019       0.00000000      0.999133229       0.00000000      0.999133229    
   5.97499990       0.00000000      0.999215364       0.00000000      0.999215364    
   6.02500010       0.00000000      0.999286890       0.00000000      0.999286890    
   6.07500029       0.00000000      0.999348402       0.00000000      0.999348402    
   6.12500000       0.00000000      0.999400795       0.00000000      0.999400795    
   6.17499971       0.00000000      0.999444962       0.00000000      0.999444962    
   6.22499990       0.00000000      0.999481499       0.00000000      0.999481499    
   6.27500010       0.00000000      0.999510646       0.00000000      0.999510646    
   6.32499981       0.00000000      0.999532938       0.00000000      0.999532938    
   6.37500000       0.00000000      0.999548793       0.00000000      0.999548793    
   6.42500019       0.00000000      0.999558926       0.00000000      0.999558926    
   6.47499990       0.00000000      0.999563336       0.00000000      0.999563336    
   6.52500010       0.00000000      0.999562621       0.00000000      0.999562621    
   6.57499981       0.00000000      0.999556899       0.00000000      0.999556899    
   6.62500000       0.00000000      0.999546528       0.00000000      0.999546528    
   6.67499971       0.00000000      0.999531150       0.00000000      0.999531150    
   6.72499990       0.00000000      0.999511480       0.00000000      0.999511480    
   6.77500010       0.00000000      0.999486983       0.00000000      0.999486983    
   6.82500029       0.00000000      0.999457836       0.00000000      0.999457836    
   6.87500000       0.00000000      0.999423802       0.00000000      0.999423802    
   6.92500019       0.00000000      0.999369383       0.00000000      0.999369383    
   6.97499990       0.00000000      0.999334037       0.00000000      0.999334037    
   0.00000000       3.33333351E-02   1.00000000       0.00000000       1.00000000    
   4.16666679E-02   3.33333351E-02   1.00004828       7.87844692E-06   1.00004828    
  0.125000000       3.33333351E-02   1.00013089       2.06727400E-05   1.00013089    
  0.208333343       3.33333351E-02   1.00018263       3.40326405E-05   1.00018263    
  0.291666687       3.33333351E-02   1.00019670       5.01873365E-05   1.00019670    
  0.375000000       3.33333351E-02   1.00016642       6.84043771E-05   1.00016642    
  0.458333373       3.33333351E-02   1.00008988       8.61117514E-05   1.00008988    
  0.541666746       3.33333351E-02  0.999971151       1.00857025E-04  0.999971151    
  0.625000000       3.33333351E-02  0.999817014       1.12724796E-04  0.999817014    
  0.708333373       3.33333351E-02  0.999632001       1.23763777E-04  0.999632001    
  0.791666687       3.33333351E-02  0.999416471       1.35146998E-04  0.999416471    
  0.875000000       3.33333351E-02  0.999167740       1.48278559E-04  0.999167740    
  0.958333373       3.33333351E-02  0.998881400       1.62965545E-04  0.998881400    
   1.04166675       3.33333351E-02  0.998550892       1.81223237E-04  0.998550892    
   1.12500000       3.33333351E-02  0.998168886       2.01523580E-04  0.998168886    
   1.20833337       3.33333351E-02  0.997728527       2.25316224E-04  0.997728586    
   1.29166675       3.33333351E-02  0.997219920       2.53384846E-04  0.997219980    
   1.37500000       3.33333351E-02  0.996633768       2.84491631E-04  0.996633768    
   1.45833337       3.33333351E-02  0.995959401       3.21026222E-04  0.995959461    
   1.54166675       3.33333351E-02  0.995184004       3.62217455E-04  0.995184064    
   1.62500012       3.33333351E-02  0.994295478       4.08557651E-04  0.994295597    
   1.70833349       3.33333351E-02  0.993278980       4.61385265E-04  0.993279099    
   1.79166675       3.33333351E-02  0.992119312       5.19925554E-04  0.992119491    
   1.87500000       3.33333351E-02  0.990800440       5.85539849E-04  0.990800619    
   1.95833349       3.33333351E-02  0.989304662       6.58195699E-04  0.989304841    
   2.04166698       3.33333351E-02  0.987618446       7.34558911E-04  0.987618744    
   2.12500000       3.33333351E-02  0.985718250       8.26019794E-04  0.985718608    
   2.20833349       3.33333351E-02  0.983605266       9.01641150E-04  0.983605683    
   2.29166675       3.33333351E-02  0.981249213       1.01706549E-03  0.981249750    
   2.37500000       3.33333351E-02  0.978674114       1.07360946E-03  0.978674710    
   2.45833349       3.33333351E-02  0.975852251       1.20456854E-03  0.975852966    
   2.50999999       3.33333351E-02  0.974014401       1.22352224E-03  0.974015176    
   2.52999997       3.33333351E-02  0.973326921       1.24100386E-03  0.973327696    
   2.54999995       3.33333351E-02  0.972625077       1.25741109E-03  0.972625911    
   2.56999993       3.33333351E-02  0.971911073       1.27275230E-03  0.971911907    
   2.58999991       3.33333351E-02  0.971186399       1.28693110E-03  0.971187234    
   2.60999990       3.33333351E-02  0.970452189       1.29937963E-03  0.970453084    
   2.63000011       3.33333351E-02  0.969709635       1.31024898E-03  0.969710529    
   2.65000010       3.33333351E-02  0.968959689       1.31979084E-03  0.968960583    
   2.67000008       3.33333351E-02  0.968203306       1.32761092E-03  0.968204200    
   2.69000006       3.33333351E-02  0.967441678       1.33333029E-03  0.967442632    
   2.71000004       3.33333351E-02  0.966676116       1.33667747E-03  0.966677070    
   2.73000002       3.33333351E-02  0.965908289       1.33748702E-03  0.965909183    
   2.75000000       3.33333351E-02  0.965139568       1.33545708E-03  0.965140522    
   2.76999998       3.33333351E-02  0.964371741       1.33098639E-03  0.964372694    
   2.78999996       3.33333351E-02  0.963606238       1.32418761E-03  0.963607132    
   2.80999994       3.33333351E-02  0.962844551       1.31464750E-03  0.962845445    
   2.82999992       3.33333351E-02  0.962088227       1.30282773E-03  0.962089121    
   2.84999990       3.33333351E-02  0.961338878       1.28752296E-03  0.961339772    
   2.86999989       3.33333351E-02  0.960598588       1.26944040E-03  0.960599422    
   2.89000010       3.33333351E-02  0.959869146       1.24769134E-03  0.959869921    
   2.91000009       3.33333351E-02  0.959152639       1.22314726E-03  0.959153414    
   2.93000007       3.33333351E-02  0.958450913       1.19484391E-03  0.958451688    
   2.95000005       3.33333351E-02  0.957766175       1.16363727E-03  0.957766891    
   2.97000003       3.33333351E-02  0.957099795       1.13004481E-03  0.957100451    
   2.99000001       3.33333351E-02  0.956453919       1.09175628E-03  0.956454515    
   3.00999999       3.33333351E-02  0.955830097       1.05374283E-03  0.955830693    
   3.02999997       3.33333351E-02  0.955230713       1.00672489E-03  0.955231249    
   3.04999995       3.33333351E-02  0.954656839       9.65420972E-04  0.954657316    
   3.06999993       3.33333351E-02  0.954111576       9.08528105E-04  0.954112053    
   3.08999991       3.33333351E-02  0.953595400       8.64960370E-04  0.953595817    
   3.10999990       3.33333351E-02  0.953111649       7.97509041E-04  0.953112006    
   3.12999988       3.33333351E-02  0.952660739       7.52196065E-04  0.952661037    
   3.14999986       3.33333351E-02  0.952245593       6.75242743E-04  0.952245831    
   3.17000008       3.33333351E-02  0.951866508       6.28783542E-04  0.951866746    
   3.19000006       3.33333351E-02  0.951526165       5.42721071E-04  0.951526344    
   3.21000004       3.33333351E-02  0.951224566       4.96854773E-04  0.951224685    
   3.23000002       3.33333351E-02  0.950964749       4.00456222E-04  0.950964868    
   3.25000000       3.33333351E-02  0.950745463       3.58520658E-04  0.950745523    
   3.26999998       3.33333351E-02  0.950570107       2.51090125E-04  0.950570166    
   3.28999996       3.33333351E-02  0.950436711       2.15396314E-04  0.950436771    
   3.30999994       3.33333351E-02  0.950348496       9.73516580E-05  0.950348496    
   3.32999992       3.33333351E-02  0.950303197       6.91531313E-05  0.950303197    
   3.34999990       3.33333351E-02  0.950303674      -5.87306095E-05  0.950303674    
   3.36999989       3.33333351E-02  0.950347424      -7.77300374E-05  0.950347424    
   3.39000010       3.33333351E-02  0.950437188      -2.15604727E-04  0.950437248    
   3.41000009       3.33333351E-02  0.950569391      -2.22677118E-04  0.950569391    
   3.43000007       3.33333351E-02  0.950747132      -3.70510854E-04  0.950747192    
   3.45000005       3.33333351E-02  0.950966239      -3.64266394E-04  0.950966299    
   3.47000003       3.33333351E-02  0.951229393      -5.21072710E-04  0.951229572    
   3.49000001       3.33333351E-02  0.951531351      -4.99980873E-04  0.951531470    
   3.52500010       3.33333351E-02  0.952175140      -6.65621599E-04  0.952175379    
   3.57499981       3.33333351E-02  0.953280210      -8.16200860E-04  0.953280568    
   3.62500000       3.33333351E-02  0.954595208      -9.49258509E-04  0.954595685    
   3.67500019       3.33333351E-02  0.956092596      -1.06297468E-03  0.956093192    
   3.72499990       3.33333351E-02  0.957742989      -1.15684792E-03  0.957743645    
   3.77500010       3.33333351E-02  0.959516406      -1.23074814E-03  0.959517181    
   3.82499981       3.33333351E-02  0.961383283      -1.28513330E-03  0.961384177    
   3.87500000       3.33333351E-02  0.963314831      -1.32062123E-03  0.963315725    
   3.92500019       3.33333351E-02  0.965283513      -1.33810763E-03  0.965284407    
   3.97499990       3.33333351E-02  0.967263579      -1.33953954E-03  0.967264533    
   4.02500010       3.33333351E-02  0.969232798      -1.32705190E-03  0.969233751    
   4.07499981       3.33333351E-02  0.971172214      -1.30312738E-03  0.971173108    
   4.12500000       3.33333351E-02  0.973066151      -1.26993039E-03  0.973066986    
   4.17500019       3.33333351E-02  0.974902272      -1.22927700E-03  0.974903047    
   4.22499990       3.33333351E-02  0.976670563      -1.18267653E-03  0.976671278    
   4.27500010       3.33333351E-02  0.978363514      -1.13191688E-03  0.978364170    
   4.32499981       3.33333351E-02  0.979975581      -1.07794104E-03  0.979976177    
   4.37500000       3.33333351E-02  0.981503606      -1.02276553E-03  0.981504142    
   4.42500019       3.33333351E-02  0.982946038      -9.66620981E-04  0.982946515    
   4.47499990       3.33333351E-02  0.984302938      -9.11408977E-04  0.984303355    
   4.52500010       3.33333351E-02  0.985574961      -8.56030732E-04  0.985575318    
   4.57499981       3.33333351E-02  0.986763537      -8.02744704E-04  0.986763835    
   4.62500000       3.33333351E-02  0.987871528      -7.50786043E-04  0.987871826    
   4.67500019       3.33333351E-02  0.988901734      -7.01339042E-04  0.988901973    
   4.72499990       3.33333351E-02  0.989858031      -6.54339383E-04  0.989858270    
   4.77500010       3.33333351E-02  0.990743876      -6.09383860E-04  0.990744054    
   4.82499981       3.33333351E-02  0.991562843      -5.66874398E-04  0.991562963    
   4.87500000       3.33333351E-02  0.992318690      -5.26949589E-04  0.992318869    
   4.92500019       3.33333351E-02  0.993015230      -4.89283993E-04  0.993015349    
   4.97499990       3.33333351E-02  0.993656158      -4.54066845E-04  0.993656218    
   5.02500010       3.33333351E-02  0.994245052      -4.21218982E-04  0.994245172    
   5.07499981       3.33333351E-02  0.994785607      -3.90529574E-04  0.994785666    
   5.12500000       3.33333351E-02  0.995280743      -3.61655140E-04  0.995280802    
   5.17500019       3.33333351E-02  0.995733738      -3.34963202E-04  0.995733798    
   5.22499990       3.33333351E-02  0.996147633      -3.10049945E-04  0.996147692    
   5.27500010       3.33333351E-02  0.996525168      -2.86996219E-04  0.996525228    
   5.32499981       3.33333351E-02  0.996869087      -2.65439856E-04  0.996869087    
   5.37500000       3.33333351E-02  0.997181773      -2.45507079E-04  0.997181773    
   5.42500019       3.33333351E-02  0.997465789      -2.27103126E-04  0.997465849    
   5.47499990       3.33333351E-02  0.997723222      -2.09853242E-04  0.997723281    
   5.52500010       3.33333351E-02  0.997956097      -1.93886721E-04  0.997956097    
   5.57500029       3.33333351E-02  0.998166025      -1.78817805E-04  0.998166025    
   5.62500000       3.33333351E-02  0.998355150      -1.65437174E-04  0.998355150    
   5.67500019       3.33333351E-02  0.998524785      -1.52216860E-04  0.998524785    
   5.72499990       3.33333351E-02  0.998676538      -1.40502903E-04  0.998676538    
   5.77500010       3.33333351E-02  0.998811960      -1.29520849E-04  0.998811960    
   5.82499981       3.33333351E-02  0.998932481      -1.19388518E-04  0.998932481    
   5.87500000       3.33333351E-02  0.999039233      -1.09900451E-04  0.999039233    
   5.92500019       3.33333351E-02  0.999133229      -1.01010541E-04  0.999133229    
   5.97499990       3.33333351E-02  0.999215364      -9.27508590E-05  0.999215364    
   6.02500010       3.33333351E-02  0.999286890      -8.51061341E-05  0.999286890    
   6.07500029       3.33333351E-02  0.999348402      -7.79894181E-05  0.999348402    
   6.12500000       3.33333351E-02  0.999400795      -7.12850815E-05  0.999400795    
   6.17499971       3.33333351E-02  0.999444962      -6.53482857E-05  0.999444962    
   6.22499990       3.33333351E-02  0.999481499      -5.94181547E-05  0.999481499    
   6.27500010       3.33333351E-02  0.999510646      -5.38775130E-05  0.999510646    
   6.32499981       3.33333351E-02  0.999532938      -4.86362187E-05  0.999532938    
   6.37500000       3.33333351E-02  0.999548793      -4.37729796E-05  0.999548793    
   6.42500019       3.33333351E-02  0.999558926      -3.93819719E-05  0.999558926    
   6.47499990       3.33333351E-02  0.999563336      -3.48295507E-05  0.999563336    
   6.52500010       3.33333351E-02  0.999562621      -3.13054552E-05  0.999562621    
   6.57499981       3.33333351E-02  0.999556899      -2.70869423E-05  0.999556899    
   6.62500000       3.33333351E-02  0.999546528      -2.42139613E-05  0.999546528    
   6.67499971       3.33333351E-02  0.999531150      -1.98804210E-05  0.999531150    
   6.72499990       3.33333351E-02  0.999511480      -1.80400639E-05  0.999511480    
   6.77500010       3.33333351E-02  0.999486983      -1.31915476E-05  0.999486983    
   6.82500029       3.33333351E-02  0.999457836      -1.19526085E-05  0.999457836    
   6.87500000       3.33333351E-02  0.999423802      -6.96257166E-06  0.999423802    
   6.92500019       3.33333351E-02  0.999369383      -6.25589564E-06  0.999369383    
   6.97499990       3.33333351E-02  0.999334037      -1.03858326E-06  0.999334037    
   0.00000000      0.100000009       1.00000000       0.00000000       1.00000000    
   4.16666679E-02  0.100000009       1.00004852       2.34176405E-05   1.00004852    
  0.125000000      0.100000009       1.00013185       6.17483674E-05   1.00013185    
  0.208333343      0.100000009       1.00018466       1.01541751E-04   1.00018466    
  0.291666687      0.100000009       1.00020051       1.49711661E-04   1.00020051    
  0.375000000      0.100000009       1.00017178       2.04920609E-04   1.00017178    
  0.458333373      0.100000009       1.00009704       2.57189822E-04   1.00009704    
  0.541666746      0.100000009      0.999981642       3.00991989E-04  0.999981701    
  0.625000000      0.100000009      0.999831378       3.36627796E-04  0.999831438    
  0.708333373      0.100000009      0.999650121       3.69846704E-04  0.999650180    
  0.791666687      0.100000009      0.999438107       4.04107152E-04  0.999438167    
  0.875000000      0.100000009      0.999193430       4.42881428E-04  0.999193549    
  0.958333373      0.100000009      0.998910785       4.87932295E-04  0.998910904    
   1.04166675      0.100000009      0.998584390       5.41285030E-04  0.998584569    
   1.12500000      0.100000009      0.998207927       6.02610002E-04  0.998208106    
   1.20833337      0.100000009      0.997772694       6.73825387E-04  0.997772932    
   1.29166675      0.100000009      0.997270465       7.57209258E-04  0.997270763    
   1.37500000      0.100000009      0.996690869       8.51144257E-04  0.996691227    
   1.45833337      0.100000009      0.996023417       9.59902070E-04  0.996023834    
   1.54166675      0.100000009      0.995256901       1.08280673E-03  0.995257497    
   1.62500012      0.100000009      0.994377255       1.22241746E-03  0.994377971    
   1.70833349      0.100000009      0.993370652       1.37951993E-03  0.993371606    
   1.79166675      0.100000009      0.992221594       1.55587960E-03  0.992222846    
   1.87500000      0.100000009      0.990913689       1.75174943E-03  0.990915239    
   1.95833349      0.100000009      0.989427686       1.97161594E-03  0.989429653    
   2.04166698      0.100000009      0.987751007       2.19902536E-03  0.987753451    
   2.12500000      0.100000009      0.985858977       2.47629592E-03  0.985862076    
   2.20833349      0.100000009      0.983751893       2.70189089E-03  0.983755589    
   2.29166675      0.100000009      0.981396317       3.05389450E-03  0.981401086    
   2.37500000      0.100000009      0.978815377       3.22280126E-03  0.978820682    
   2.45833349      0.100000009      0.975979269       3.62314330E-03  0.975986004    
   2.50999999      0.100000009      0.974126637       3.68089625E-03  0.974133551    
   2.52999997      0.100000009      0.973432481       3.73492856E-03  0.973439634    
   2.54999995      0.100000009      0.972723126       3.78558086E-03  0.972730517    
   2.56999993      0.100000009      0.972000837       3.83294094E-03  0.972008407    
   2.58999991      0.100000009      0.971267104       3.87655734E-03  0.971274853    
   2.60999990      0.100000009      0.970522940       3.91562656E-03  0.970530868    
   2.63000011      0.100000009      0.969769359       3.95017304E-03  0.969777405    
   2.65000010      0.100000009      0.969007492       3.97991948E-03  0.969015658    
   2.67000008      0.100000009      0.968238354       4.00499441E-03  0.968246639    
   2.69000006      0.100000009      0.967463017       4.02378151E-03  0.967471361    
   2.71000004      0.100000009      0.966682851       4.03538812E-03  0.966691256    
   2.73000002      0.100000009      0.965899408       4.03900957E-03  0.965907872    
   2.75000000      0.100000009      0.965114355       4.03462956E-03  0.965122759    
   2.76999998      0.100000009      0.964329243       4.02257778E-03  0.964337587    