 TITLE= "TESTPLOT" 
 VARIABLES="x","y","u","v","magu" 
 ZONE T="1", I=         151 , J=          31
   0.00000000       0.00000000       1.00000000       0.00000000       1.00000000    
   4.16666679E-02   0.00000000       1.00006652       0.00000000       1.00006652    
  0.125000000       0.00000000       1.00002599       0.00000000       1.00002599    
  0.208333343       0.00000000      0.999954224       0.00000000      0.999954224    
  0.291666687       0.00000000      0.999842644       0.00000000      0.999842644    
  0.375000000       0.00000000      0.999696255       0.00000000      0.999696255    
  0.458333373       0.00000000      0.999509335       0.00000000      0.999509335    
  0.541666746       0.00000000      0.999278307       0.00000000      0.999278307    
  0.625000000       0.00000000      0.999000728       0.00000000      0.999000728    
  0.708333373       0.00000000      0.998669982       0.00000000      0.998669982    
  0.791666687       0.00000000      0.998282194       0.00000000      0.998282194    
  0.875000000       0.00000000      0.997830391       0.00000000      0.997830391    
  0.958333373       0.00000000      0.997305691       0.00000000      0.997305691    
   1.04166675       0.00000000      0.996702313       0.00000000      0.996702313    
   1.12500000       0.00000000      0.996008515       0.00000000      0.996008515    
   1.20833337       0.00000000      0.995215297       0.00000000      0.995215297    
   1.29166675       0.00000000      0.994309068       0.00000000      0.994309068    
   1.37500000       0.00000000      0.993274689       0.00000000      0.993274689    
   1.45833337       0.00000000      0.992095530       0.00000000      0.992095530    
   1.54166675       0.00000000      0.990753412       0.00000000      0.990753412    
   1.62500012       0.00000000      0.989227772       0.00000000      0.989227772    
   1.70833349       0.00000000      0.987496018       0.00000000      0.987496018    
   1.79166675       0.00000000      0.985531330       0.00000000      0.985531330    
   1.87500000       0.00000000      0.983307838       0.00000000      0.983307838    
   1.95833349       0.00000000      0.980794311       0.00000000      0.980794311    
   2.04166698       0.00000000      0.977964640       0.00000000      0.977964640    
   2.12500000       0.00000000      0.974783301       0.00000000      0.974783301    
   2.20833349       0.00000000      0.971226573       0.00000000      0.971226573    
   2.29166675       0.00000000      0.967260838       0.00000000      0.967260838    
   2.37500000       0.00000000      0.962870121       0.00000000      0.962870121    
   2.45833349       0.00000000      0.958035707       0.00000000      0.958035707    
   2.50999999       0.00000000      0.954777420       0.00000000      0.954777420    
   2.52999997       0.00000000      0.953487396       0.00000000      0.953487396    
   2.54999995       0.00000000      0.952172816       0.00000000      0.952172816    
   2.56999993       0.00000000      0.950833917       0.00000000      0.950833917    
   2.58999991       0.00000000      0.949471354       0.00000000      0.949471354    
   2.60999990       0.00000000      0.948085248       0.00000000      0.948085248    
   2.63000011       0.00000000      0.946676552       0.00000000      0.946676552    
   2.65000010       0.00000000      0.945245624       0.00000000      0.945245624    
   2.67000008       0.00000000      0.943793535       0.00000000      0.943793535    
   2.69000006       0.00000000      0.942320585       0.00000000      0.942320585    
   2.71000004       0.00000000      0.940827966       0.00000000      0.940827966    
   2.73000002       0.00000000      0.939316511       0.00000000      0.939316511    
   2.75000000       0.00000000      0.937787354       0.00000000      0.937787354    
   2.76999998       0.00000000      0.936241388       0.00000000      0.936241388    
   2.78999996       0.00000000      0.934680104       0.00000000      0.934680104    
   2.80999994       0.00000000      0.933104396       0.00000000      0.933104396    
   2.82999992       0.00000000      0.931515813       0.00000000      0.931515813    
   2.84999990       0.00000000      0.929915428       0.00000000      0.929915428    
   2.86999989       0.00000000      0.928305089       0.00000000      0.928305089    
   2.89000010       0.00000000      0.926685810       0.00000000      0.926685810    
   2.91000009       0.00000000      0.925059557       0.00000000      0.925059557    
   2.93000007       0.00000000      0.923427343       0.00000000      0.923427343    
   2.95000005       0.00000000      0.921791375       0.00000000      0.921791375    
   2.97000003       0.00000000      0.920152664       0.00000000      0.920152664    
   2.99000001       0.00000000      0.918513298       0.00000000      0.918513298    
   3.00999999       0.00000000      0.916874528       0.00000000      0.916874528    
   3.02999997       0.00000000      0.915238321       0.00000000      0.915238321    
   3.04999995       0.00000000      0.913605928       0.00000000      0.913605928    
   3.06999993       0.00000000      0.911979437       0.00000000      0.911979437    
   3.08999991       0.00000000      0.910359979       0.00000000      0.910359979    
   3.10999990       0.00000000      0.908749580       0.00000000      0.908749580    
   3.12999988       0.00000000      0.907149076       0.00000000      0.907149076    
   3.14999986       0.00000000      0.905560613       0.00000000      0.905560613    
   3.17000008       0.00000000      0.903984845       0.00000000      0.903984845    
   3.19000006       0.00000000      0.902423739       0.00000000      0.902423739    
   3.21000004       0.00000000      0.900878072       0.00000000      0.900878072    
   3.23000002       0.00000000      0.899349451       0.00000000      0.899349451    
   3.25000000       0.00000000      0.897838414       0.00000000      0.897838414    
   3.26999998       0.00000000      0.896346629       0.00000000      0.896346629    
   3.28999996       0.00000000      0.894874454       0.00000000      0.894874454    
   3.30999994       0.00000000      0.893423438       0.00000000      0.893423438    
   3.32999992       0.00000000      0.891993523       0.00000000      0.891993523    
   3.34999990       0.00000000      0.890586138       0.00000000      0.890586138    
   3.36999989       0.00000000      0.889201224       0.00000000      0.889201224    
   3.39000010       0.00000000      0.887840033       0.00000000      0.887840033    
   3.41000009       0.00000000      0.886502266       0.00000000      0.886502266    
   3.43000007       0.00000000      0.885189056       0.00000000      0.885189056    
   3.45000005       0.00000000      0.883899808       0.00000000      0.883899808    
   3.47000003       0.00000000      0.882635772       0.00000000      0.882635772    
   3.49000001       0.00000000      0.881396055       0.00000000      0.881396055    
   3.52500010       0.00000000      0.879295230       0.00000000      0.879295230    
   3.57499981       0.00000000      0.876415968       0.00000000      0.876415968    
   3.62500000       0.00000000      0.873690903       0.00000000      0.873690903    
   3.67500019       0.00000000      0.871116400       0.00000000      0.871116400    
   3.72499990       0.00000000      0.868689179       0.00000000      0.868689179    
   3.77500010       0.00000000      0.866405010       0.00000000      0.866405010    
   3.82499981       0.00000000      0.864259481       0.00000000      0.864259481    
   3.87500000       0.00000000      0.862245679       0.00000000      0.862245679    
   3.92500019       0.00000000      0.860357881       0.00000000      0.860357881    
   3.97499990       0.00000000      0.858587801       0.00000000      0.858587801    
   4.02500010       0.00000000      0.856928110       0.00000000      0.856928110    
   4.07499981       0.00000000      0.855370343       0.00000000      0.855370343    
   4.12500000       0.00000000      0.853908241       0.00000000      0.853908241    
   4.17500019       0.00000000      0.852534294       0.00000000      0.852534294    
   4.22499990       0.00000000      0.851242542       0.00000000      0.851242542    
   4.27500010       0.00000000      0.850023925       0.00000000      0.850023925    
   4.32499981       0.00000000      0.848872721       0.00000000      0.848872721    
   4.37500000       0.00000000      0.847780943       0.00000000      0.847780943    
   4.42500019       0.00000000      0.846743941       0.00000000      0.846743941    
   4.47499990       0.00000000      0.845754027       0.00000000      0.845754027    
   4.52500010       0.00000000      0.844807744       0.00000000      0.844807744    
   4.57499981       0.00000000      0.843897223       0.00000000      0.843897223    
   4.62500000       0.00000000      0.843018770       0.00000000      0.843018770    
   4.67500019       0.00000000      0.842163682       0.00000000      0.842163682    
   4.72499990       0.00000000      0.841328621       0.00000000      0.841328621    
   4.77500010       0.00000000      0.840505898       0.00000000      0.840505898    
   4.82499981       0.00000000      0.839694023       0.00000000      0.839694023    
   4.87500000       0.00000000      0.838884294       0.00000000      0.838884294    
   4.92500019       0.00000000      0.838076174       0.00000000      0.838076174    
   4.97499990       0.00000000      0.837260842       0.00000000      0.837260842    
   5.02500010       0.00000000      0.836438417       0.00000000      0.836438417    
   5.07499981       0.00000000      0.835599303       0.00000000      0.835599303    
   5.12500000       0.00000000      0.834745884       0.00000000      0.834745884    
   5.17500019       0.00000000      0.833866835       0.00000000      0.833866835    
   5.22499990       0.00000000      0.832964659       0.00000000      0.832964659    
   5.27500010       0.00000000      0.832026839       0.00000000      0.832026839    
   5.32499981       0.00000000      0.831056178       0.00000000      0.831056178    
   5.37500000       0.00000000      0.830037832       0.00000000      0.830037832    
   5.42500019       0.00000000      0.828976214       0.00000000      0.828976214    
   5.47499990       0.00000000      0.827852845       0.00000000      0.827852845    
   5.52500010       0.00000000      0.826672912       0.00000000      0.826672912    
   5.57500029       0.00000000      0.825416207       0.00000000      0.825416207    
   5.62500000       0.00000000      0.824089050       0.00000000      0.824089050    
   5.67500019       0.00000000      0.822668791       0.00000000      0.822668791    
   5.72499990       0.00000000      0.821163595       0.00000000      0.821163595    
   5.77500010       0.00000000      0.819546938       0.00000000      0.819546938    
   5.82499981       0.00000000      0.817828715       0.00000000      0.817828715    
   5.87500000       0.00000000      0.815978765       0.00000000      0.815978765    
   5.92500019       0.00000000      0.814009428       0.00000000      0.814009428    
   5.97499990       0.00000000      0.811887324       0.00000000      0.811887324    
   6.02500010       0.00000000      0.809627116       0.00000000      0.809627116    
   6.07500029       0.00000000      0.807195187       0.00000000      0.807195187    
   6.12500000       0.00000000      0.804610312       0.00000000      0.804610312    
   6.17499971       0.00000000      0.801843166       0.00000000      0.801843166    
   6.22499990       0.00000000      0.798917532       0.00000000      0.798917532    
   6.27500010       0.00000000      0.795814872       0.00000000      0.795814872    
   6.32499981       0.00000000      0.792564631       0.00000000      0.792564631    
   6.37500000       0.00000000      0.789171875       0.00000000      0.789171875    
   6.42500019       0.00000000      0.785670996       0.00000000      0.785670996    
   6.47499990       0.00000000      0.782103419       0.00000000      0.782103419    
   6.52500010       0.00000000      0.778503418       0.00000000      0.778503418    
   6.57499981       0.00000000      0.774962783       0.00000000      0.774962783    
   6.62500000       0.00000000      0.771501958       0.00000000      0.771501958    
   6.67499971       0.00000000      0.768270969       0.00000000      0.768270969    
   6.72499990       0.00000000      0.765257359       0.00000000      0.765257359    
   6.77500010       0.00000000      0.762664497       0.00000000      0.762664497    
   6.82500029       0.00000000      0.760430217       0.00000000      0.760430217    
   6.87500000       0.00000000      0.758780301       0.00000000      0.758780301    
   6.92500019       0.00000000      0.757639110       0.00000000      0.757639110    
   6.97499990       0.00000000      0.757119358       0.00000000      0.757119358    
   0.00000000       3.33333351E-02   1.00000000       0.00000000       1.00000000    
   4.16666679E-02   3.33333351E-02   1.00006652      -5.31362894E-05   1.00006652    
  0.125000000       3.33333351E-02   1.00002599       8.54910977E-05   1.00002599    
  0.208333343       3.33333351E-02  0.999954224      -2.81081211E-05  0.999954224    
  0.291666687       3.33333351E-02  0.999842644       1.17340038E-04  0.999842644    
  0.375000000       3.33333351E-02  0.999696255      -1.94327484E-07  0.999696255    
  0.458333373       3.33333351E-02  0.999509335       1.49707761E-04  0.999509335    
  0.541666746       3.33333351E-02  0.999278307       3.51023446E-05  0.999278307    
  0.625000000       3.33333351E-02  0.999000728       1.86981139E-04  0.999000788    
  0.708333373       3.33333351E-02  0.998669982       7.76002780E-05  0.998669982    
  0.791666687       3.33333351E-02  0.998282194       2.32588252E-04  0.998282254    
  0.875000000       3.33333351E-02  0.997830391       1.28847678E-04  0.997830391    
  0.958333373       3.33333351E-02  0.997305691       2.90910859E-04  0.997305751    
   1.04166675       3.33333351E-02  0.996702313       1.91780942E-04  0.996702313    
   1.12500000       3.33333351E-02  0.996008515       3.63304542E-04  0.996008575    
   1.20833337       3.33333351E-02  0.995215297       2.71252356E-04  0.995215297    
   1.29166675       3.33333351E-02  0.994309068       4.53668326E-04  0.994309127    
   1.37500000       3.33333351E-02  0.993274689       3.73862742E-04  0.993274748    
   1.45833337       3.33333351E-02  0.992095530       5.69476455E-04  0.992095649    
   1.54166675       3.33333351E-02  0.990753412       5.04191965E-04  0.990753531    
   1.62500012       3.33333351E-02  0.989227772       7.16364651E-04  0.989228070    
   1.70833349       3.33333351E-02  0.987496018       6.69002184E-04  0.987496257    
   1.79166675       3.33333351E-02  0.985531330       9.02768632E-04  0.985531747    
   1.87500000       3.33333351E-02  0.983307838       8.76022386E-04  0.983308256    
   1.95833349       3.33333351E-02  0.980794311       1.13482797E-03  0.980794966    
   2.04166698       3.33333351E-02  0.977964640       1.12892420E-03  0.977965295    
   2.12500000       3.33333351E-02  0.974783301       1.41613989E-03  0.974784315    
   2.20833349       3.33333351E-02  0.971226573       1.42925128E-03  0.971227586    
   2.29166675       3.33333351E-02  0.967260838       1.74330256E-03  0.967262447    
   2.37500000       3.33333351E-02  0.962870121       1.76933140E-03  0.962871790    
   2.45833349       3.33333351E-02  0.958035707       2.09818408E-03  0.958038032    
   2.50999999       3.33333351E-02  0.954777420       2.11888365E-03  0.954779744    
   2.52999997       3.33333351E-02  0.953487396       2.18147691E-03  0.953489900    
   2.54999995       3.33333351E-02  0.952172816       2.20041163E-03  0.952175379    
   2.56999993       3.33333351E-02  0.950833917       2.26268731E-03  0.950836599    
   2.58999991       3.33333351E-02  0.949471354       2.27930932E-03  0.949474096    
   2.60999990       3.33333351E-02  0.948085248       2.34115170E-03  0.948088169    
   2.63000011       3.33333351E-02  0.946676552       2.35449034E-03  0.946679473    
   2.65000010       3.33333351E-02  0.945245624       2.41521839E-03  0.945248723    
   2.67000008       3.33333351E-02  0.943793535       2.42528738E-03  0.943796635    
   2.69000006       3.33333351E-02  0.942320585       2.48468108E-03  0.942323864    
   2.71000004       3.33333351E-02  0.940827966       2.49055494E-03  0.940831304    
   2.73000002       3.33333351E-02  0.939316511       2.54791509E-03  0.939319968    
   2.75000000       3.33333351E-02  0.937787354       2.54922570E-03  0.937790811    
   2.76999998       3.33333351E-02  0.936241388       2.60391645E-03  0.936245024    
   2.78999996       3.33333351E-02  0.934680104       2.60030502E-03  0.934683681    
   2.80999994       3.33333351E-02  0.933104396       2.65218923E-03  0.933108151    
   2.82999992       3.33333351E-02  0.931515813       2.64294096E-03  0.931519568    
   2.84999990       3.33333351E-02  0.929915428       2.69139931E-03  0.929919362    
   2.86999989       3.33333351E-02  0.928305089       2.67618289E-03  0.928308964    
   2.89000010       3.33333351E-02  0.926685810       2.72118719E-03  0.926689804    
   2.91000009       3.33333351E-02  0.925059557       2.69947643E-03  0.925063491    
   2.93000007       3.33333351E-02  0.923427343       2.74075312E-03  0.923431396    
   2.95000005       3.33333351E-02  0.921791375       2.71223742E-03  0.921795368    
   2.97000003       3.33333351E-02  0.920152664       2.74982140E-03  0.920156777    
   2.99000001       3.33333351E-02  0.918513298       2.71414337E-03  0.918517292    
   3.00999999       3.33333351E-02  0.916874528       2.74805096E-03  0.916878641    
   3.02999997       3.33333351E-02  0.915238321       2.70526181E-03  0.915242314    
   3.04999995       3.33333351E-02  0.913605928       2.73528742E-03  0.913610041    
   3.06999993       3.33333351E-02  0.911979437       2.68555176E-03  0.911983371    
   3.08999991       3.33333351E-02  0.910359979       2.71196407E-03  0.910364032    
   3.10999990       3.33333351E-02  0.908749580       2.65541533E-03  0.908753455    
   3.12999988       3.33333351E-02  0.907149076       2.67858990E-03  0.907153010    
   3.14999986       3.33333351E-02  0.905560613       2.61543435E-03  0.905564427    
   3.17000008       3.33333351E-02  0.903984845       2.63597164E-03  0.903988719    
   3.19000006       3.33333351E-02  0.902423739       2.56656692E-03  0.902427435    
   3.21000004       3.33333351E-02  0.900878072       2.58465996E-03  0.900881767    
   3.23000002       3.33333351E-02  0.899349451       2.50965753E-03  0.899352968    
   3.25000000       3.33333351E-02  0.897838414       2.52585136E-03  0.897841990    
   3.26999998       3.33333351E-02  0.896346629       2.44548940E-03  0.896349967    
   3.28999996       3.33333351E-02  0.894874454       2.46043387E-03  0.894877851    
   3.30999994       3.33333351E-02  0.893423438       2.37525534E-03  0.893426597    
   3.32999992       3.33333351E-02  0.891993523       2.38975091E-03  0.891996741    
   3.34999990       3.33333351E-02  0.890586138       2.30021123E-03  0.890589118    
   3.36999989       3.33333351E-02  0.889201224       2.31491704E-03  0.889204204    
   3.39000010       3.33333351E-02  0.887840033       2.22114660E-03  0.887842834    
   3.41000009       3.33333351E-02  0.886502266       2.23709061E-03  0.886505127    
   3.43000007       3.33333351E-02  0.885189056       2.13918276E-03  0.885191679    
   3.45000005       3.33333351E-02  0.883899808       2.15725787E-03  0.883902431    
   3.47000003       3.33333351E-02  0.882635772       2.05538026E-03  0.882638156    
   3.49000001       3.33333351E-02  0.881396055       2.07620673E-03  0.881398499    
   3.52500010       3.33333351E-02  0.879295230       1.97036471E-03  0.879297435    
   3.57499981       3.33333351E-02  0.876415968       1.86856173E-03  0.876417994    
   3.62500000       3.33333351E-02  0.873690903       1.76493253E-03  0.873692691    
   3.67500019       3.33333351E-02  0.871116400       1.66803016E-03  0.871118009    
   3.72499990       3.33333351E-02  0.868689179       1.56867597E-03  0.868690610    
   3.77500010       3.33333351E-02  0.866405010       1.47752697E-03  0.866406262    
   3.82499981       3.33333351E-02  0.864259481       1.38397585E-03  0.864260554    
   3.87500000       3.33333351E-02  0.862245679       1.30214612E-03  0.862246633    
   3.92500019       3.33333351E-02  0.860357881       1.21618726E-03  0.860358715    
   3.97499990       3.33333351E-02  0.858587801       1.14548800E-03  0.858588576    
   4.02500010       3.33333351E-02  0.856928110       1.06929231E-03  0.856928766    
   4.07499981       3.33333351E-02  0.855370343       1.00992131E-03  0.855370939    
   4.12500000       3.33333351E-02  0.853908241       9.42018989E-04  0.853908777    
   4.17500019       3.33333351E-02  0.852534294       8.92685959E-04  0.852534771    
   4.22499990       3.33333351E-02  0.851242542       8.32790218E-04  0.851242959    
   4.27500010       3.33333351E-02  0.850023925       7.95397384E-04  0.850024343    
   4.32499981       3.33333351E-02  0.848872721       7.43318582E-04  0.848873019    
   4.37500000       3.33333351E-02  0.847780943       7.16427981E-04  0.847781241    
   4.42500019       3.33333351E-02  0.846743941       6.70519541E-04  0.846744239    
   4.47499990       3.33333351E-02  0.845754027       6.54123491E-04  0.845754266    
   4.52500010       3.33333351E-02  0.844807744       6.12395757E-04  0.844807923    
   4.57499981       3.33333351E-02  0.843897223       6.06668938E-04  0.843897402    
   4.62500000       3.33333351E-02  0.843018770       5.69865864E-04  0.843018949    
   4.67500019       3.33333351E-02  0.842163682       5.75630052E-04  0.842163920    
   4.72499990       3.33333351E-02  0.841328621       5.43108559E-04  0.841328800    
   4.77500010       3.33333351E-02  0.840505898       5.59180859E-04  0.840506077    
   4.82499981       3.33333351E-02  0.839694023       5.28466539E-04  0.839694202    
   4.87500000       3.33333351E-02  0.838884294       5.56064944E-04  0.838884473    
   4.92500019       3.33333351E-02  0.838076174       5.25941548E-04  0.838076353    
   4.97499990       3.33333351E-02  0.837260842       5.65161696E-04  0.837261021    
   5.02500010       3.33333351E-02  0.836438417       5.34659252E-04  0.836438596    
   5.07499981       3.33333351E-02  0.835599303       5.86634560E-04  0.835599542    
   5.12500000       3.33333351E-02  0.834745884       5.52871788E-04  0.834746063    
   5.17500019       3.33333351E-02  0.833866835       6.19621831E-04  0.833867073    
   5.22499990       3.33333351E-02  0.832964659       5.82415785E-04  0.832964897    
   5.27500010       3.33333351E-02  0.832026839       6.65700005E-04  0.832027078    
   5.32499981       3.33333351E-02  0.831056178       6.24509878E-04  0.831056416    
   5.37500000       3.33333351E-02  0.830037832       7.27431558E-04  0.830038190    
   5.42500019       3.33333351E-02  0.828976214       6.80129800E-04  0.828976512    
   5.47499990       3.33333351E-02  0.827852845       8.07612843E-04  0.827853262    
   5.52500010       3.33333351E-02  0.826672912       7.53271277E-04  0.826673269    
   5.57500029       3.33333351E-02  0.825416207       9.07497830E-04  0.825416684    
   5.62500000       3.33333351E-02  0.824089050       8.44854105E-04  0.824089468    
   5.67500019       3.33333351E-02  0.822668791       1.02920830E-03  0.822669446    
   5.72499990       3.33333351E-02  0.821163595       9.55519208E-04  0.821164131    
   5.77500010       3.33333351E-02  0.819546938       1.17565633E-03  0.819547772    
   5.82499981       3.33333351E-02  0.817828715       1.08880620E-03  0.817829430    
   5.87500000       3.33333351E-02  0.815978765       1.34957919E-03  0.815979898    
   5.92500019       3.33333351E-02  0.814009428       1.24683115E-03  0.814010382    
   5.97499990       3.33333351E-02  0.811887324       1.55235361E-03  0.811888814    
   6.02500010       3.33333351E-02  0.809627116       1.43091346E-03  0.809628367    
   6.07500029       3.33333351E-02  0.807195187       1.78204966E-03  0.807197154    
   6.12500000       3.33333351E-02  0.804610312       1.63661840E-03  0.804611981    
   6.17499971       3.33333351E-02  0.801843166       2.02773861E-03  0.801845729    
   6.22499990       3.33333351E-02  0.798917532       1.85169454E-03  0.798919737    
   6.27500010       3.33333351E-02  0.795814872       2.26885895E-03  0.795818090    
   6.32499981       3.33333351E-02  0.792564631       2.05462915E-03  0.792567313    
   6.37500000       3.33333351E-02  0.789171875       2.46632728E-03  0.789175749    
   6.42500019       3.33333351E-02  0.785670996       2.20739213E-03  0.785674095    
   6.47499990       3.33333351E-02  0.782103419       2.56473990E-03  0.782107592    
   6.52500010       3.33333351E-02  0.778503418       2.26113410E-03  0.778506756    
   6.57499981       3.33333351E-02  0.774962783       2.49653845E-03  0.774966836    
   6.62500000       3.33333351E-02  0.771501958       2.16629752E-03  0.771504998    
   6.67499971       3.33333351E-02  0.768270969       2.20150710E-03  0.768274128    
   6.72499990       3.33333351E-02  0.765257359       1.88772124E-03  0.765259743    
   6.77500010       3.33333351E-02  0.762664497       1.65100885E-03  0.762666285    
   6.82500029       3.33333351E-02  0.760430217       1.41894200E-03  0.760431528    
   6.87500000       3.33333351E-02  0.758780301       8.79520027E-04  0.758780837    
   6.92500019       3.33333351E-02  0.757639110       7.78006506E-04  0.757639527    
   6.97499990       3.33333351E-02  0.757119358      -1.59456226E-06  0.757119358    
   0.00000000      0.100000009       1.00000000       0.00000000       1.00000000    
   4.16666679E-02  0.100000009       1.00007010      -1.62375625E-04   1.00007010    
  0.125000000      0.100000009       1.00002944       2.59670342E-04   1.00002944    
  0.208333343      0.100000009      0.999959111      -8.87219940E-05  0.999959111    
  0.291666687      0.100000009      0.999850869       3.53756681E-04  0.999850929    
  0.375000000      0.100000009      0.999705732      -3.32218656E-06  0.999705732    
  0.458333373      0.100000009      0.999519587       4.51275031E-04  0.999519706    
  0.541666746      0.100000009      0.999291122       1.01127327E-04  0.999291122    
  0.625000000      0.100000009      0.999017656       5.61795721E-04  0.999017775    
  0.708333373      0.100000009      0.998690605       2.28982477E-04  0.998690665    
  0.791666687      0.100000009      0.998306513       6.98701246E-04  0.998306751    
  0.875000000      0.100000009      0.997858286       3.82720958E-04  0.997858346    
  0.958333373      0.100000009      0.997339427       8.71849596E-04  0.997339845    
   1.04166675      0.100000009      0.996743023       5.70671400E-04  0.996743202    
   1.12500000      0.100000009      0.996057868       1.08759361E-03  0.996058464    
   1.20833337      0.100000009      0.995273948       8.08710407E-04  0.995274305    
   1.29166675      0.100000009      0.994376898       1.35873060E-03  0.994377792    
   1.37500000      0.100000009      0.993354380       1.11436273E-03  0.993355036    
   1.45833337      0.100000009      0.992189765       1.70398224E-03  0.992191195    
   1.54166675      0.100000009      0.990861356       1.50609575E-03  0.990862489    
   1.62500012      0.100000009      0.989349127       2.14479468E-03  0.989351451    
   1.70833349      0.100000009      0.987632990       1.99884060E-03  0.987635016    
   1.79166675      0.100000009      0.985685885       2.70239520E-03  0.985689640    
   1.87500000      0.100000009      0.983482420       2.61795730E-03  0.983485878    
   1.95833349      0.100000009      0.980988920       3.39853927E-03  0.980994821    
   2.04166698      0.100000009      0.978179574       3.37646948E-03  0.978185415    
   2.12500000      0.100000009      0.975018561       4.24246397E-03  0.975027800    
   2.20833349      0.100000009      0.971479893       4.27925307E-03  0.971489310    
   2.29166675      0.100000009      0.967529416       5.22633549E-03  0.967543542    
   2.37500000      0.100000009      0.963146567       5.30522363E-03  0.963161170    
   2.45833349      0.100000009      0.958310843       6.29833806E-03  0.958331585    
   2.50999999      0.100000009      0.955046356       6.36144867E-03  0.955067575    
   2.52999997      0.100000009      0.953752995       6.55061426E-03  0.953775525    
   2.54999995      0.100000009      0.952434421       6.60834555E-03  0.952457368    
   2.56999993      0.100000009      0.951090813       6.79669715E-03  0.951115072    
   2.58999991      0.100000009      0.949722767       6.84740487E-03  0.949747443    
   2.60999990      0.100000009      0.948330641       7.03409361E-03  0.948356748    
   2.63000011      0.100000009      0.946915150       7.07578752E-03  0.946941555    
   2.65000010      0.100000009      0.945476353       7.25954259E-03  0.945504248    
   2.67000008      0.100000009      0.944015622       7.29067624E-03  0.944043756    
   2.69000006      0.100000009      0.942533433       7.47015327E-03  0.942562997    
   2.71000004      0.100000009      0.941030800       7.48901069E-03  0.941060603    
   2.73000002      0.100000009      0.939508379       7.66251097E-03  0.939539611    
   2.75000000      0.100000009      0.937967539       7.66778924E-03  0.937998891    
   2.76999998      0.100000009      0.936409116       7.83331320E-03  0.936441898    