 TITLE= "TESTPLOT" 
 VARIABLES="x","y","u","v","magu" 
 ZONE T="1", I=         151 , J=          31
   0.00000000       0.00000000       1.00000000       0.00000000       1.00000000    
   4.16666679E-02   0.00000000       1.00002980       0.00000000       1.00002980    
  0.125000000       0.00000000       1.00007057       0.00000000       1.00007057    
  0.208333343       0.00000000       1.00008035       0.00000000       1.00008035    
  0.291666687       0.00000000       1.00004935       0.00000000       1.00004935    
  0.375000000       0.00000000      0.999985337       0.00000000      0.999985337    
  0.458333373       0.00000000      0.999872208       0.00000000      0.999872208    
  0.541666746       0.00000000      0.999722838       0.00000000      0.999722838    
  0.625000000       0.00000000      0.999515414       0.00000000      0.999515414    
  0.708333373       0.00000000      0.999266982       0.00000000      0.999266982    
  0.791666687       0.00000000      0.998948574       0.00000000      0.998948574    
  0.875000000       0.00000000      0.998572707       0.00000000      0.998572707    
  0.958333373       0.00000000      0.998113990       0.00000000      0.998113990    
   1.04166675       0.00000000      0.997580230       0.00000000      0.997580230    
   1.12500000       0.00000000      0.996948719       0.00000000      0.996948719    
   1.20833337       0.00000000      0.996222377       0.00000000      0.996222377    
   1.29166675       0.00000000      0.995371819       0.00000000      0.995371819    
   1.37500000       0.00000000      0.994396210       0.00000000      0.994396210    
   1.45833337       0.00000000      0.993261218       0.00000000      0.993261218    
   1.54166675       0.00000000      0.991969466       0.00000000      0.991969466    
   1.62500012       0.00000000      0.990482926       0.00000000      0.990482926    
   1.70833349       0.00000000      0.988799155       0.00000000      0.988799155    
   1.79166675       0.00000000      0.986871958       0.00000000      0.986871958    
   1.87500000       0.00000000      0.984689951       0.00000000      0.984689951    
   1.95833349       0.00000000      0.982203841       0.00000000      0.982203841    
   2.04166698       0.00000000      0.979394794       0.00000000      0.979394794    
   2.12500000       0.00000000      0.976223111       0.00000000      0.976223111    
   2.20833349       0.00000000      0.972670078       0.00000000      0.972670078    
   2.29166675       0.00000000      0.968709350       0.00000000      0.968709350    
   2.37500000       0.00000000      0.964328170       0.00000000      0.964328170    
   2.45833349       0.00000000      0.959519029       0.00000000      0.959519029    
   2.50999999       0.00000000      0.956267953       0.00000000      0.956267953    
   2.52999997       0.00000000      0.954965711       0.00000000      0.954965711    
   2.54999995       0.00000000      0.953638792       0.00000000      0.953638792    
   2.56999993       0.00000000      0.952287376       0.00000000      0.952287376    
   2.58999991       0.00000000      0.950911760       0.00000000      0.950911760    
   2.60999990       0.00000000      0.949512362       0.00000000      0.949512362    
   2.63000011       0.00000000      0.948089778       0.00000000      0.948089778    
   2.65000010       0.00000000      0.946644664       0.00000000      0.946644664    
   2.67000008       0.00000000      0.945177972       0.00000000      0.945177972    
   2.69000006       0.00000000      0.943690240       0.00000000      0.943690240    
   2.71000004       0.00000000      0.942182541       0.00000000      0.942182541    
   2.73000002       0.00000000      0.940655947       0.00000000      0.940655947    
   2.75000000       0.00000000      0.939111769       0.00000000      0.939111769    
   2.76999998       0.00000000      0.937551141       0.00000000      0.937551141    
   2.78999996       0.00000000      0.935975373       0.00000000      0.935975373    
   2.80999994       0.00000000      0.934385419       0.00000000      0.934385419    
   2.82999992       0.00000000      0.932782531       0.00000000      0.932782531    
   2.84999990       0.00000000      0.931167722       0.00000000      0.931167722    
   2.86999989       0.00000000      0.929542661       0.00000000      0.929542661    
   2.89000010       0.00000000      0.927908361       0.00000000      0.927908361    
   2.91000009       0.00000000      0.926266670       0.00000000      0.926266670    
   2.93000007       0.00000000      0.924619079       0.00000000      0.924619079    
   2.95000005       0.00000000      0.922967553       0.00000000      0.922967553    
   2.97000003       0.00000000      0.921313524       0.00000000      0.921313524    
   2.99000001       0.00000000      0.919659019       0.00000000      0.919659019    
   3.00999999       0.00000000      0.918005466       0.00000000      0.918005466    
   3.02999997       0.00000000      0.916354895       0.00000000      0.916354895    
   3.04999995       0.00000000      0.914708614       0.00000000      0.914708614    
   3.06999993       0.00000000      0.913068712       0.00000000      0.913068712    
   3.08999991       0.00000000      0.911436319       0.00000000      0.911436319    
   3.10999990       0.00000000      0.909813464       0.00000000      0.909813464    
   3.12999988       0.00000000      0.908201218       0.00000000      0.908201218    
   3.14999986       0.00000000      0.906601608       0.00000000      0.906601608    
   3.17000008       0.00000000      0.905015409       0.00000000      0.905015409    
   3.19000006       0.00000000      0.903444648       0.00000000      0.903444648    
   3.21000004       0.00000000      0.901889920       0.00000000      0.901889920    
   3.23000002       0.00000000      0.900353193       0.00000000      0.900353193    
   3.25000000       0.00000000      0.898835063       0.00000000      0.898835063    
   3.26999998       0.00000000      0.897336960       0.00000000      0.897336960    
   3.28999996       0.00000000      0.895859838       0.00000000      0.895859838    
   3.30999994       0.00000000      0.894404769       0.00000000      0.894404769    
   3.32999992       0.00000000      0.892972112       0.00000000      0.892972112    
   3.34999990       0.00000000      0.891563416       0.00000000      0.891563416    
   3.36999989       0.00000000      0.890178502       0.00000000      0.890178502    
   3.39000010       0.00000000      0.888819039       0.00000000      0.888819039    
   3.41000009       0.00000000      0.887484610       0.00000000      0.887484610    
   3.43000007       0.00000000      0.886176467       0.00000000      0.886176467    
   3.45000005       0.00000000      0.884894490       0.00000000      0.884894490    
   3.47000003       0.00000000      0.883639574       0.00000000      0.883639574    
   3.49000001       0.00000000      0.882398009       0.00000000      0.882398009    
   3.52500010       0.00000000      0.880375803       0.00000000      0.880375803    
   3.57499981       0.00000000      0.877678216       0.00000000      0.877678216    
   3.62500000       0.00000000      0.875150263       0.00000000      0.875150263    
   3.67500019       0.00000000      0.872790873       0.00000000      0.872790873    
   3.72499990       0.00000000      0.870598316       0.00000000      0.870598316    
   3.77500010       0.00000000      0.868569553       0.00000000      0.868569553    
   3.82499981       0.00000000      0.866700649       0.00000000      0.866700649    
   3.87500000       0.00000000      0.864986241       0.00000000      0.864986241    
   3.92500019       0.00000000      0.863420486       0.00000000      0.863420486    
   3.97499990       0.00000000      0.861997604       0.00000000      0.861997604    
   4.02500010       0.00000000      0.860711575       0.00000000      0.860711575    
   4.07499981       0.00000000      0.859557748       0.00000000      0.859557748    
   4.12500000       0.00000000      0.858531833       0.00000000      0.858531833    
   4.17500019       0.00000000      0.857630849       0.00000000      0.857630849    
   4.22499990       0.00000000      0.856852293       0.00000000      0.856852293    
   4.27500010       0.00000000      0.856195450       0.00000000      0.856195450    
   4.32499981       0.00000000      0.855660677       0.00000000      0.855660677    
   4.37500000       0.00000000      0.855249405       0.00000000      0.855249405    
   4.42500019       0.00000000      0.854964375       0.00000000      0.854964375    
   4.47499990       0.00000000      0.854809761       0.00000000      0.854809761    
   4.52500010       0.00000000      0.854791224       0.00000000      0.854791224    
   4.57499981       0.00000000      0.854917109       0.00000000      0.854917109    
   4.62500000       0.00000000      0.855197906       0.00000000      0.855197906    
   4.67500019       0.00000000      0.855647087       0.00000000      0.855647087    
   4.72499990       0.00000000      0.856281102       0.00000000      0.856281102    
   4.77500010       0.00000000      0.857118130       0.00000000      0.857118130    
   4.82499981       0.00000000      0.858179867       0.00000000      0.858179867    
   4.87500000       0.00000000      0.859488368       0.00000000      0.859488368    
   4.92500019       0.00000000      0.861067176       0.00000000      0.861067176    
   4.97499990       0.00000000      0.862938643       0.00000000      0.862938643    
   5.02500010       0.00000000      0.865123272       0.00000000      0.865123272    
   5.07499981       0.00000000      0.867636979       0.00000000      0.867636979    
   5.12500000       0.00000000      0.870490789       0.00000000      0.870490789    
   5.17500019       0.00000000      0.873687387       0.00000000      0.873687387    
   5.22499990       0.00000000      0.877220988       0.00000000      0.877220988    
   5.27500010       0.00000000      0.881073952       0.00000000      0.881073952    
   5.32499981       0.00000000      0.885219693       0.00000000      0.885219693    
   5.37500000       0.00000000      0.889621317       0.00000000      0.889621317    
   5.42500019       0.00000000      0.894235730       0.00000000      0.894235730    
   5.47499990       0.00000000      0.899011254       0.00000000      0.899011254    
   5.52500010       0.00000000      0.903894544       0.00000000      0.903894544    
   5.57500029       0.00000000      0.908829749       0.00000000      0.908829749    
   5.62500000       0.00000000      0.913763762       0.00000000      0.913763762    
   5.67500019       0.00000000      0.918645501       0.00000000      0.918645501    
   5.72499990       0.00000000      0.923431039       0.00000000      0.923431039    
   5.77500010       0.00000000      0.928080499       0.00000000      0.928080499    
   5.82499981       0.00000000      0.932563305       0.00000000      0.932563305    
   5.87500000       0.00000000      0.936852813       0.00000000      0.936852813    
   5.92500019       0.00000000      0.940932631       0.00000000      0.940932631    
   5.97499990       0.00000000      0.944788933       0.00000000      0.944788933    
   6.02500010       0.00000000      0.948416591       0.00000000      0.948416591    
   6.07500029       0.00000000      0.951810837       0.00000000      0.951810837    
   6.12500000       0.00000000      0.954975486       0.00000000      0.954975486    
   6.17499971       0.00000000      0.957912683       0.00000000      0.957912683    
   6.22499990       0.00000000      0.960631132       0.00000000      0.960631132    
   6.27500010       0.00000000      0.963135600       0.00000000      0.963135600    
   6.32499981       0.00000000      0.965436995       0.00000000      0.965436995    
   6.37500000       0.00000000      0.967541218       0.00000000      0.967541218    
   6.42500019       0.00000000      0.969460368       0.00000000      0.969460368    
   6.47499990       0.00000000      0.971198440       0.00000000      0.971198440    
   6.52500010       0.00000000      0.972767353       0.00000000      0.972767353    
   6.57499981       0.00000000      0.974169612       0.00000000      0.974169612    
   6.62500000       0.00000000      0.975416183       0.00000000      0.975416183    
   6.67499971       0.00000000      0.976507425       0.00000000      0.976507425    
   6.72499990       0.00000000      0.977454364       0.00000000      0.977454364    
   6.77500010       0.00000000      0.978253722       0.00000000      0.978253722    
   6.82500029       0.00000000      0.978916407       0.00000000      0.978916407    
   6.87500000       0.00000000      0.979434848       0.00000000      0.979434848    
   6.92500019       0.00000000      0.979844034       0.00000000      0.979844034    
   6.97499990       0.00000000      0.980053604       0.00000000      0.980053604    
   0.00000000       3.33333351E-02   1.00000000       0.00000000       1.00000000    
   4.16666679E-02   3.33333351E-02   1.00002980       6.36507411E-06   1.00002980    
  0.125000000       3.33333351E-02   1.00007057       2.24745709E-05   1.00007057    
  0.208333343       3.33333351E-02   1.00008035       3.18786879E-05   1.00008035    
  0.291666687       3.33333351E-02   1.00004935       5.45017028E-05   1.00004935    
  0.375000000       3.33333351E-02  0.999985337       5.75378072E-05  0.999985337    
  0.458333373       3.33333351E-02  0.999872208       9.26724097E-05  0.999872208    
  0.541666746       3.33333351E-02  0.999722838       8.53004312E-05  0.999722838    
  0.625000000       3.33333351E-02  0.999515414       1.37775496E-04  0.999515414    
  0.708333373       3.33333351E-02  0.999266982       1.16493153E-04  0.999266982    
  0.791666687       3.33333351E-02  0.998948574       1.91996602E-04  0.998948634    
  0.875000000       3.33333351E-02  0.998572707       1.60613141E-04  0.998572707    
  0.958333373       3.33333351E-02  0.998113990       2.56141910E-04  0.998114049    
   1.04166675       3.33333351E-02  0.997580230       2.18487447E-04  0.997580230    
   1.12500000       3.33333351E-02  0.996948719       3.31968331E-04  0.996948779    
   1.20833337       3.33333351E-02  0.996222377       2.91896926E-04  0.996222377    
   1.29166675       3.33333351E-02  0.995371819       4.28688392E-04  0.995371878    
   1.37500000       3.33333351E-02  0.994396210       3.89250490E-04  0.994396329    
   1.45833337       3.33333351E-02  0.993261218       5.53304621E-04  0.993261397    
   1.54166675       3.33333351E-02  0.991969466       5.11717924E-04  0.991969585    
   1.62500012       3.33333351E-02  0.990482926       7.05991755E-04  0.990483165    
   1.70833349       3.33333351E-02  0.988799155       6.66352804E-04  0.988799393    
   1.79166675       3.33333351E-02  0.986871958       8.97495251E-04  0.986872375    
   1.87500000       3.33333351E-02  0.984689951       8.66864168E-04  0.984690368    
   1.95833349       3.33333351E-02  0.982203841       1.13728165E-03  0.982204497    
   2.04166698       3.33333351E-02  0.979394794       1.12169620E-03  0.979395449    
   2.12500000       3.33333351E-02  0.976223111       1.42379908E-03  0.976224124    
   2.20833349       3.33333351E-02  0.972670078       1.42309116E-03  0.972671092    
   2.29166675       3.33333351E-02  0.968709350       1.74629502E-03  0.968710959    
   2.37500000       3.33333351E-02  0.964328170       1.75555353E-03  0.964329779    
   2.45833349       3.33333351E-02  0.959519029       2.08715186E-03  0.959521294    
   2.50999999       3.33333351E-02  0.956267953       2.09343084E-03  0.956270278    
   2.52999997       3.33333351E-02  0.954965711       2.16948218E-03  0.954968214    
   2.54999995       3.33333351E-02  0.953638792       2.17098021E-03  0.953641236    
   2.56999993       3.33333351E-02  0.952287376       2.24580010E-03  0.952290058    
   2.58999991       3.33333351E-02  0.950911760       2.24602409E-03  0.950914443    
   2.60999990       3.33333351E-02  0.949512362       2.31946795E-03  0.949515164    
   2.63000011       3.33333351E-02  0.948089778       2.31750449E-03  0.948092580    
   2.65000010       3.33333351E-02  0.946644664       2.38888827E-03  0.946647704    
   2.67000008       3.33333351E-02  0.945177972       2.38402467E-03  0.945180953    
   2.69000006       3.33333351E-02  0.943690240       2.45342613E-03  0.943693459    
   2.71000004       3.33333351E-02  0.942182541       2.44517671E-03  0.942185700    
   2.73000002       3.33333351E-02  0.940655947       2.51128455E-03  0.940659344    
   2.75000000       3.33333351E-02  0.939111769       2.49850168E-03  0.939115107    
   2.76999998       3.33333351E-02  0.937551141       2.56099436E-03  0.937554657    
   2.78999996       3.33333351E-02  0.935975373       2.54374091E-03  0.935978830    
   2.80999994       3.33333351E-02  0.934385419       2.60342984E-03  0.934389055    
   2.82999992       3.33333351E-02  0.932782531       2.58199358E-03  0.932786107    
   2.84999990       3.33333351E-02  0.931167722       2.63836142E-03  0.931171477    
   2.86999989       3.33333351E-02  0.929542661       2.61173025E-03  0.929546297    
   2.89000010       3.33333351E-02  0.927908361       2.66443682E-03  0.927912176    
   2.91000009       3.33333351E-02  0.926266670       2.63175857E-03  0.926270425    
   2.93000007       3.33333351E-02  0.924619079       2.67994707E-03  0.924622953    
   2.95000005       3.33333351E-02  0.922967553       2.64074816E-03  0.922971308    
   2.97000003       3.33333351E-02  0.921313524       2.68442370E-03  0.921317458    
   2.99000001       3.33333351E-02  0.919659019       2.63828039E-03  0.919662774    
   3.00999999       3.33333351E-02  0.918005466       2.67752726E-03  0.918009341    
   3.02999997       3.33333351E-02  0.916354895       2.62450590E-03  0.916358650    
   3.04999995       3.33333351E-02  0.914708614       2.65983096E-03  0.914712489    
   3.06999993       3.33333351E-02  0.913068712       2.59968778E-03  0.913072407    
   3.08999991       3.33333351E-02  0.911436319       2.63153901E-03  0.911440134    
   3.10999990       3.33333351E-02  0.909813464       2.56459182E-03  0.909817040    
   3.12999988       3.33333351E-02  0.908201218       2.59334594E-03  0.908204913    
   3.14999986       3.33333351E-02  0.906601608       2.51965784E-03  0.906605124    
   3.17000008       3.33333351E-02  0.905015409       2.54582497E-03  0.905018985    
   3.19000006       3.33333351E-02  0.903444648       2.46577407E-03  0.903447986    
   3.21000004       3.33333351E-02  0.901889920       2.48981826E-03  0.901893377    
   3.23000002       3.33333351E-02  0.900353193       2.40380480E-03  0.900356412    
   3.25000000       3.33333351E-02  0.898835063       2.42553093E-03  0.898838341    
   3.26999998       3.33333351E-02  0.897336960       2.33502663E-03  0.897340000    
   3.28999996       3.33333351E-02  0.895859838       2.35422770E-03  0.895862937    
   3.30999994       3.33333351E-02  0.894404769       2.25983025E-03  0.894407630    
   3.32999992       3.33333351E-02  0.892972112       2.27801572E-03  0.892974973    
   3.34999990       3.33333351E-02  0.891563416       2.17870856E-03  0.891566098    
   3.36999989       3.33333351E-02  0.890178502       2.19786656E-03  0.890181184    
   3.39000010       3.33333351E-02  0.888819039       2.09310115E-03  0.888821542    
   3.41000009       3.33333351E-02  0.887484610       2.11379747E-03  0.887487113    
   3.43000007       3.33333351E-02  0.886176467       2.00502784E-03  0.886178732    
   3.45000005       3.33333351E-02  0.884894490       2.02634744E-03  0.884896815    
   3.47000003       3.33333351E-02  0.883639574       1.91496592E-03  0.883641660    
   3.49000001       3.33333351E-02  0.882398009       1.93776214E-03  0.882400155    
   3.52500010       3.33333351E-02  0.880375803       1.82186987E-03  0.880377710    
   3.57499981       3.33333351E-02  0.877678216       1.70606584E-03  0.877679884    
   3.62500000       3.33333351E-02  0.875150263       1.59249001E-03  0.875151694    
   3.67500019       3.33333351E-02  0.872790873       1.48057507E-03  0.872792125    
   3.72499990       3.33333351E-02  0.870598316       1.37034769E-03  0.870599389    
   3.77500010       3.33333351E-02  0.868569553       1.26274594E-03  0.868570507    
   3.82499981       3.33333351E-02  0.866700649       1.15817355E-03  0.866701424    
   3.87500000       3.33333351E-02  0.864986241       1.05802843E-03  0.864986897    
   3.92500019       3.33333351E-02  0.863420486       9.61196085E-04  0.863421082    
   3.97499990       3.33333351E-02  0.861997604       8.68999748E-04  0.861998022    
   4.02500010       3.33333351E-02  0.860711575       7.80148606E-04  0.860711932    
   4.07499981       3.33333351E-02  0.859557748       6.94519491E-04  0.859558046    
   4.12500000       3.33333351E-02  0.858531833       6.11330091E-04  0.858532012    
   4.17500019       3.33333351E-02  0.857630849       5.29987970E-04  0.857631028    
   4.22499990       3.33333351E-02  0.856852293       4.50123160E-04  0.856852412    
   4.27500010       3.33333351E-02  0.856195450       3.69914429E-04  0.856195509    
   4.32499981       3.33333351E-02  0.855660677       2.89536983E-04  0.855660737    
   4.37500000       3.33333351E-02  0.855249405       2.07827252E-04  0.855249465    
   4.42500019       3.33333351E-02  0.854964375       1.23756894E-04  0.854964375    
   4.47499990       3.33333351E-02  0.854809761       3.67573448E-05  0.854809761    
   4.52500010       3.33333351E-02  0.854791224      -5.50005425E-05  0.854791224    
   4.57499981       3.33333351E-02  0.854917109      -1.52840861E-04  0.854917109    
   4.62500000       3.33333351E-02  0.855197906      -2.58439104E-04  0.855197966    
   4.67500019       3.33333351E-02  0.855647087      -3.74278432E-04  0.855647147    
   4.72499990       3.33333351E-02  0.856281102      -5.01557952E-04  0.856281221    
   4.77500010       3.33333351E-02  0.857118130      -6.41619612E-04  0.857118368    
   4.82499981       3.33333351E-02  0.858179867      -7.97615619E-04  0.858180225    
   4.87500000       3.33333351E-02  0.859488368      -9.67266678E-04  0.859488904    
   4.92500019       3.33333351E-02  0.861067176      -1.15439587E-03  0.861067951    
   4.97499990       3.33333351E-02  0.862938643      -1.35403580E-03  0.862939715    
   5.02500010       3.33333351E-02  0.865123272      -1.56856771E-03  0.865124702    
   5.07499981       3.33333351E-02  0.867636979      -1.78935158E-03  0.867638826    
   5.12500000       3.33333351E-02  0.870490789      -2.01878231E-03  0.870493114    
   5.17500019       3.33333351E-02  0.873687387      -2.24339054E-03  0.873690248    
   5.22499990       3.33333351E-02  0.877220988      -2.46520597E-03  0.877224445    
   5.27500010       3.33333351E-02  0.881073952      -2.66668480E-03  0.881078005    
   5.32499981       3.33333351E-02  0.885219693      -2.85318075E-03  0.885224342    
   5.37500000       3.33333351E-02  0.889621317      -3.00570112E-03  0.889626384    
   5.42500019       3.33333351E-02  0.894235730      -3.13521014E-03  0.894241214    
   5.47499990       3.33333351E-02  0.899011254      -3.21910763E-03  0.899017036    
   5.52500010       3.33333351E-02  0.903894544      -3.27759096E-03  0.903900504    
   5.57500029       3.33333351E-02  0.908829749      -3.28731467E-03  0.908835649    
   5.62500000       3.33333351E-02  0.913763762      -3.27523425E-03  0.913769662    
   5.67500019       3.33333351E-02  0.918645501      -3.21695139E-03  0.918651164    
   5.72499990       3.33333351E-02  0.923431039      -3.14617250E-03  0.923436403    
   5.77500010       3.33333351E-02  0.928080499      -3.03446851E-03  0.928085446    
   5.82499981       3.33333351E-02  0.932563305      -2.92245508E-03  0.932567894    
   5.87500000       3.33333351E-02  0.936852813      -2.77480320E-03  0.936856925    
   5.92500019       3.33333351E-02  0.940932631      -2.64014793E-03  0.940936327    
   5.97499990       3.33333351E-02  0.944788933      -2.47306051E-03  0.944792151    
   6.02500010       3.33333351E-02  0.948416591      -2.33013812E-03  0.948419452    
   6.07500029       3.33333351E-02  0.951810837      -2.15572910E-03  0.951813281    
   6.12500000       3.33333351E-02  0.954975486      -2.01645540E-03  0.954977632    
   6.17499971       3.33333351E-02  0.957912683      -1.84374861E-03  0.957914472    
   6.22499990       3.33333351E-02  0.960631132      -1.71481760E-03  0.960632622    
   6.27500010       3.33333351E-02  0.963135600      -1.54773239E-03  0.963136852    
   6.32499981       3.33333351E-02  0.965436995      -1.43304758E-03  0.965438068    
   6.37500000       3.33333351E-02  0.967541218      -1.27389759E-03  0.967542052    
   6.42500019       3.33333351E-02  0.969460368      -1.17562106E-03  0.969461083    
   6.47499990       3.33333351E-02  0.971198440      -1.02320896E-03  0.971198976    
   6.52500010       3.33333351E-02  0.972767353      -9.41964448E-04  0.972767830    
   6.57499981       3.33333351E-02  0.974169612      -7.94550346E-04  0.974169970    
   6.62500000       3.33333351E-02  0.975416183      -7.29883148E-04  0.975416481    
   6.67499971       3.33333351E-02  0.976507425      -5.84664813E-04  0.976507604    
   6.72499990       3.33333351E-02  0.977454364      -5.36451582E-04  0.977454543    
   6.77500010       3.33333351E-02  0.978253722      -3.89129942E-04  0.978253841    
   6.82500029       3.33333351E-02  0.978916407      -3.58097546E-04  0.978916466    
   6.87500000       3.33333351E-02  0.979434848      -2.03785356E-04  0.979434907    
   6.92500019       3.33333351E-02  0.979844034      -1.88683014E-04  0.979844093    
   6.97499990       3.33333351E-02  0.980053604      -2.40293975E-05  0.980053604    
   0.00000000      0.100000009       1.00000000       0.00000000       1.00000000    
   4.16666679E-02  0.100000009       1.00003076       1.82634139E-05   1.00003076    
  0.125000000      0.100000009       1.00007212       6.77824719E-05   1.00007212    
  0.208333343      0.100000009       1.00008273       9.47651570E-05   1.00008273    
  0.291666687      0.100000009       1.00005221       1.64055062E-04   1.00005221    
  0.375000000      0.100000009      0.999989748       1.70744723E-04  0.999989748    
  0.458333373      0.100000009      0.999880075       2.77149753E-04  0.999880075    
  0.541666746      0.100000009      0.999735892       2.52681493E-04  0.999735892    
  0.625000000      0.100000009      0.999531627       4.13995818E-04  0.999531746    
  0.708333373      0.100000009      0.999285102       3.47255089E-04  0.999285161    
  0.791666687      0.100000009      0.998970389       5.75268175E-04  0.998970568    
  0.875000000      0.100000009      0.998600662       4.77683090E-04  0.998600781    
  0.958333373      0.100000009      0.998148680       7.67213758E-04  0.998148978    
   1.04166675      0.100000009      0.997623086       6.50179805E-04  0.997623324    
   1.12500000      0.100000009      0.996999502       9.94815142E-04  0.997000039    
   1.20833337      0.100000009      0.996280551       8.70870950E-04  0.996280909    
   1.29166675      0.100000009      0.995438159       1.28443015E-03  0.995438993    
   1.37500000      0.100000009      0.994473517       1.16061291E-03  0.994474173    
   1.45833337      0.100000009      0.993351877       1.65637746E-03  0.993353248    
   1.54166675      0.100000009      0.992073953       1.52763934E-03  0.992075145    
   1.62500012      0.100000009      0.990603030       2.11305637E-03  0.990605295    
   1.70833349      0.100000009      0.988936782       1.98996207E-03  0.988938749    
   1.79166675      0.100000009      0.987027168       2.68754922E-03  0.987030864    
   1.87500000      0.100000009      0.984863520       2.59086676E-03  0.984866917    
   1.95833349      0.100000009      0.982396841       3.40608461E-03  0.982402742    
   2.04166698      0.100000009      0.979607701       3.35502345E-03  0.979613483    
   2.12500000      0.100000009      0.976456642       4.26498428E-03  0.976465940    
   2.20833349      0.100000009      0.972922683       4.26044874E-03  0.972932041    
   2.29166675      0.100000009      0.968976557       5.23604359E-03  0.968990684    
   2.37500000      0.100000009      0.964604855       5.26207499E-03  0.964619219    
   2.45833349      0.100000009      0.959797144       6.26495387E-03  0.959817588    
   2.50999999      0.100000009      0.956540585       6.28465787E-03  0.956561208    
   2.52999997      0.100000009      0.955235362       6.51442446E-03  0.955257535    
   2.54999995      0.100000009      0.953904748       6.52007665E-03  0.953927040    
   2.56999993      0.100000009      0.952548921       6.74555730E-03  0.952572823    
   2.58999991      0.100000009      0.951168120       6.74793683E-03  0.951192081    
   2.60999990      0.100000009      0.949762523       6.97000790E-03  0.949788094    
   2.63000011      0.100000009      0.948333025       6.96487632E-03  0.948358595    
   2.65000010      0.100000009      0.946880102       7.18098693E-03  0.946907341    
   2.67000008      0.100000009      0.945404708       7.16762198E-03  0.945431888    
   2.69000006      0.100000009      0.943907440       7.37755559E-03  0.943936229    
   2.71000004      0.100000009      0.942389369       7.35386508E-03  0.942418039    
   2.73000002      0.100000009      0.940851331       7.55431969E-03  0.940881610    
   2.75000000      0.100000009      0.939294934       7.51662254E-03  0.939325035    
   2.76999998      0.100000009      0.937721014       7.70673063E-03  0.937752664    