 TITLE= "TESTPLOT" 
 VARIABLES="x","y","u","v","magu" 
 ZONE T="1", I=         151 , J=          31
   0.00000000       0.00000000       1.00000000       0.00000000       1.00000000    
   4.16666679E-02   0.00000000       1.00007105       0.00000000       1.00007105    
  0.125000000       0.00000000       1.00003743       0.00000000       1.00003743    
  0.208333343       0.00000000      0.999967694       0.00000000      0.999967694    
  0.291666687       0.00000000      0.999861479       0.00000000      0.999861479    
  0.375000000       0.00000000      0.999717772       0.00000000      0.999717772    
  0.458333373       0.00000000      0.999533057       0.00000000      0.999533057    
  0.541666746       0.00000000      0.999305606       0.00000000      0.999305606    
  0.625000000       0.00000000      0.999029279       0.00000000      0.999029279    
  0.708333373       0.00000000      0.998700678       0.00000000      0.998700678    
  0.791666687       0.00000000      0.998315096       0.00000000      0.998315096    
  0.875000000       0.00000000      0.997865558       0.00000000      0.997865558    
  0.958333373       0.00000000      0.997345090       0.00000000      0.997345090    
   1.04166675       0.00000000      0.996743798       0.00000000      0.996743798    
   1.12500000       0.00000000      0.996052623       0.00000000      0.996052623    
   1.20833337       0.00000000      0.995261312       0.00000000      0.995261312    
   1.29166675       0.00000000      0.994355500       0.00000000      0.994355500    
   1.37500000       0.00000000      0.993322670       0.00000000      0.993322670    
   1.45833337       0.00000000      0.992143035       0.00000000      0.992143035    
   1.54166675       0.00000000      0.990800738       0.00000000      0.990800738    
   1.62500012       0.00000000      0.989273310       0.00000000      0.989273310    
   1.70833349       0.00000000      0.987541258       0.00000000      0.987541258    
   1.79166675       0.00000000      0.985576630       0.00000000      0.985576630    
   1.87500000       0.00000000      0.983355701       0.00000000      0.983355701    
   1.95833349       0.00000000      0.980845809       0.00000000      0.980845809    
   2.04166698       0.00000000      0.978020370       0.00000000      0.978020370    
   2.12500000       0.00000000      0.974844754       0.00000000      0.974844754    
   2.20833349       0.00000000      0.971293330       0.00000000      0.971293330    
   2.29166675       0.00000000      0.967334092       0.00000000      0.967334092    
   2.37500000       0.00000000      0.962951243       0.00000000      0.962951243    
   2.45833349       0.00000000      0.958126128       0.00000000      0.958126128    
   2.50999999       0.00000000      0.954874754       0.00000000      0.954874754    
   2.52999997       0.00000000      0.953587413       0.00000000      0.953587413    
   2.54999995       0.00000000      0.952275634       0.00000000      0.952275634    
   2.56999993       0.00000000      0.950939715       0.00000000      0.950939715    
   2.58999991       0.00000000      0.949580073       0.00000000      0.949580073    
   2.60999990       0.00000000      0.948197186       0.00000000      0.948197186    
   2.63000011       0.00000000      0.946791828       0.00000000      0.946791828    
   2.65000010       0.00000000      0.945364296       0.00000000      0.945364296    
   2.67000008       0.00000000      0.943915606       0.00000000      0.943915606    
   2.69000006       0.00000000      0.942446351       0.00000000      0.942446351    
   2.71000004       0.00000000      0.940957665       0.00000000      0.940957665    
   2.73000002       0.00000000      0.939450145       0.00000000      0.939450145    
   2.75000000       0.00000000      0.937925100       0.00000000      0.937925100    
   2.76999998       0.00000000      0.936383367       0.00000000      0.936383367    
   2.78999996       0.00000000      0.934826493       0.00000000      0.934826493    
   2.80999994       0.00000000      0.933255255       0.00000000      0.933255255    
   2.82999992       0.00000000      0.931671441       0.00000000      0.931671441    
   2.84999990       0.00000000      0.930076003       0.00000000      0.930076003    
   2.86999989       0.00000000      0.928470850       0.00000000      0.928470850    
   2.89000010       0.00000000      0.926856995       0.00000000      0.926856995    
   2.91000009       0.00000000      0.925236464       0.00000000      0.925236464    
   2.93000007       0.00000000      0.923610330       0.00000000      0.923610330    
   2.95000005       0.00000000      0.921980619       0.00000000      0.921980619    
   2.97000003       0.00000000      0.920348525       0.00000000      0.920348525    
   2.99000001       0.00000000      0.918716073       0.00000000      0.918716073    
   3.00999999       0.00000000      0.917084336       0.00000000      0.917084336    
   3.02999997       0.00000000      0.915455699       0.00000000      0.915455699    
   3.04999995       0.00000000      0.913831234       0.00000000      0.913831234    
   3.06999993       0.00000000      0.912212968       0.00000000      0.912212968    
   3.08999991       0.00000000      0.910601914       0.00000000      0.910601914    
   3.10999990       0.00000000      0.909000278       0.00000000      0.909000278    
   3.12999988       0.00000000      0.907408953       0.00000000      0.907408953    
   3.14999986       0.00000000      0.905830026       0.00000000      0.905830026    
   3.17000008       0.00000000      0.904264212       0.00000000      0.904264212    
   3.19000006       0.00000000      0.902713537       0.00000000      0.902713537    
   3.21000004       0.00000000      0.901178539       0.00000000      0.901178539    
   3.23000002       0.00000000      0.899661243       0.00000000      0.899661243    
   3.25000000       0.00000000      0.898161948       0.00000000      0.898161948    
   3.26999998       0.00000000      0.896682501       0.00000000      0.896682501    
   3.28999996       0.00000000      0.895223022       0.00000000      0.895223022    
   3.30999994       0.00000000      0.893785357       0.00000000      0.893785357    
   3.32999992       0.00000000      0.892369390       0.00000000      0.892369390    
   3.34999990       0.00000000      0.890976727       0.00000000      0.890976727    
   3.36999989       0.00000000      0.889607072       0.00000000      0.889607072    
   3.39000010       0.00000000      0.888261914       0.00000000      0.888261914    
   3.41000009       0.00000000      0.886940837       0.00000000      0.886940837    
   3.43000007       0.00000000      0.885645270       0.00000000      0.885645270    
   3.45000005       0.00000000      0.884374499       0.00000000      0.884374499    
   3.47000003       0.00000000      0.883129835       0.00000000      0.883129835    
   3.49000001       0.00000000      0.881910563       0.00000000      0.881910563    
   3.52500010       0.00000000      0.879848421       0.00000000      0.879848421    
   3.57499981       0.00000000      0.877027929       0.00000000      0.877027929    
   3.62500000       0.00000000      0.874368966       0.00000000      0.874368966    
   3.67500019       0.00000000      0.871868134       0.00000000      0.871868134    
   3.72499990       0.00000000      0.869522512       0.00000000      0.869522512    
   3.77500010       0.00000000      0.867325425       0.00000000      0.867325425    
   3.82499981       0.00000000      0.865271688       0.00000000      0.865271688    
   3.87500000       0.00000000      0.863352537       0.00000000      0.863352537    
   3.92500019       0.00000000      0.861562610       0.00000000      0.861562610    
   3.97499990       0.00000000      0.859892368       0.00000000      0.859892368    
   4.02500010       0.00000000      0.858335614       0.00000000      0.858335614    
   4.07499981       0.00000000      0.856881857       0.00000000      0.856881857    
   4.12500000       0.00000000      0.855526090       0.00000000      0.855526090    
   4.17500019       0.00000000      0.854259491       0.00000000      0.854259491    
   4.22499990       0.00000000      0.853078365       0.00000000      0.853078365    
   4.27500010       0.00000000      0.851974964       0.00000000      0.851974964    
   4.32499981       0.00000000      0.850947559       0.00000000      0.850947559    
   4.37500000       0.00000000      0.849987388       0.00000000      0.849987388    
   4.42500019       0.00000000      0.849093080       0.00000000      0.849093080    
   4.47499990       0.00000000      0.848255455       0.00000000      0.848255455    
   4.52500010       0.00000000      0.847474694       0.00000000      0.847474694    
   4.57499981       0.00000000      0.846741855       0.00000000      0.846741855    
   4.62500000       0.00000000      0.846058547       0.00000000      0.846058547    
   4.67500019       0.00000000      0.845414996       0.00000000      0.845414996    
   4.72499990       0.00000000      0.844814301       0.00000000      0.844814301    
   4.77500010       0.00000000      0.844245195       0.00000000      0.844245195    
   4.82499981       0.00000000      0.843712151       0.00000000      0.843712151    
   4.87500000       0.00000000      0.843203664       0.00000000      0.843203664    
   4.92500019       0.00000000      0.842726946       0.00000000      0.842726946    
   4.97499990       0.00000000      0.842269063       0.00000000      0.842269063    
   5.02500010       0.00000000      0.841838658       0.00000000      0.841838658    
   5.07499981       0.00000000      0.841420949       0.00000000      0.841420949    
   5.12500000       0.00000000      0.841026068       0.00000000      0.841026068    
   5.17500019       0.00000000      0.840638399       0.00000000      0.840638399    
   5.22499990       0.00000000      0.840270281       0.00000000      0.840270281    
   5.27500010       0.00000000      0.839904070       0.00000000      0.839904070    
   5.32499981       0.00000000      0.839555502       0.00000000      0.839555502    
   5.37500000       0.00000000      0.839204729       0.00000000      0.839204729    
   5.42500019       0.00000000      0.838869870       0.00000000      0.838869870    
   5.47499990       0.00000000      0.838530540       0.00000000      0.838530540    
   5.52500010       0.00000000      0.838207126       0.00000000      0.838207126    
   5.57500029       0.00000000      0.837878525       0.00000000      0.837878525    
   5.62500000       0.00000000      0.837565839       0.00000000      0.837565839    
   5.67500019       0.00000000      0.837248445       0.00000000      0.837248445    
   5.72499990       0.00000000      0.836946487       0.00000000      0.836946487    
   5.77500010       0.00000000      0.836643100       0.00000000      0.836643100    
   5.82499981       0.00000000      0.836352885       0.00000000      0.836352885    
   5.87500000       0.00000000      0.836066246       0.00000000      0.836066246    
   5.92500019       0.00000000      0.835786700       0.00000000      0.835786700    
   5.97499990       0.00000000      0.835520148       0.00000000      0.835520148    
   6.02500010       0.00000000      0.835251391       0.00000000      0.835251391    
   6.07500029       0.00000000      0.835009694       0.00000000      0.835009694    
   6.12500000       0.00000000      0.834753394       0.00000000      0.834753394    
   6.17499971       0.00000000      0.834543467       0.00000000      0.834543467    
   6.22499990       0.00000000      0.834303796       0.00000000      0.834303796    
   6.27500010       0.00000000      0.834131598       0.00000000      0.834131598    
   6.32499981       0.00000000      0.833917618       0.00000000      0.833917618    
   6.37500000       0.00000000      0.833784401       0.00000000      0.833784401    
   6.42500019       0.00000000      0.833608687       0.00000000      0.833608687    
   6.47499990       0.00000000      0.833506942       0.00000000      0.833506942    
   6.52500010       0.00000000      0.833386779       0.00000000      0.833386779    
   6.57499981       0.00000000      0.833303571       0.00000000      0.833303571    
   6.62500000       0.00000000      0.833248973       0.00000000      0.833248973    
   6.67499971       0.00000000      0.833178401       0.00000000      0.833178401    
   6.72499990       0.00000000      0.833175421       0.00000000      0.833175421    
   6.77500010       0.00000000      0.833126843       0.00000000      0.833126843    
   6.82500029       0.00000000      0.833139420       0.00000000      0.833139420    
   6.87500000       0.00000000      0.833119690       0.00000000      0.833119690    
   6.92500019       0.00000000      0.833119273       0.00000000      0.833119273    
   6.97499990       0.00000000      0.833113730       0.00000000      0.833113730    
   0.00000000       3.33333351E-02   1.00000000       0.00000000       1.00000000    
   4.16666679E-02   3.33333351E-02   1.00007105      -5.67575007E-05   1.00007105    
  0.125000000       3.33333351E-02   1.00003743       8.36553227E-05   1.00003743    
  0.208333343       3.33333351E-02  0.999967694      -2.78995067E-05  0.999967694    
  0.291666687       3.33333351E-02  0.999861479       1.12841968E-04  0.999861479    
  0.375000000       3.33333351E-02  0.999717772       2.10210442E-06  0.999717772    
  0.458333373       3.33333351E-02  0.999533057       1.45687911E-04  0.999533057    
  0.541666746       3.33333351E-02  0.999305606       3.63704785E-05  0.999305606    
  0.625000000       3.33333351E-02  0.999029279       1.84660414E-04  0.999029338    
  0.708333373       3.33333351E-02  0.998700678       7.82551870E-05  0.998700678    
  0.791666687       3.33333351E-02  0.998315096       2.30321253E-04  0.998315156    
  0.875000000       3.33333351E-02  0.997865558       1.29337219E-04  0.997865558    
  0.958333373       3.33333351E-02  0.997345090       2.87153613E-04  0.997345090    
   1.04166675       3.33333351E-02  0.996743798       1.93877539E-04  0.996743858    
   1.12500000       3.33333351E-02  0.996052623       3.59167636E-04  0.996052682    
   1.20833337       3.33333351E-02  0.995261312       2.74015067E-04  0.995261371    
   1.29166675       3.33333351E-02  0.994355500       4.50699707E-04  0.994355619    
   1.37500000       3.33333351E-02  0.993322670       3.75645759E-04  0.993322730    
   1.45833337       3.33333351E-02  0.992143035       5.68156247E-04  0.992143214    
   1.54166675       3.33333351E-02  0.990800738       5.05792617E-04  0.990800858    
   1.62500012       3.33333351E-02  0.989273310       7.16247247E-04  0.989273548    
   1.70833349       3.33333351E-02  0.987541258       6.69510860E-04  0.987541497    
   1.79166675       3.33333351E-02  0.985576630       9.02281201E-04  0.985577047    
   1.87500000       3.33333351E-02  0.983355701       8.74603982E-04  0.983356118    
   1.95833349       3.33333351E-02  0.980845809       1.13344274E-03  0.980846465    
   2.04166698       3.33333351E-02  0.978020370       1.12699356E-03  0.978021026    
   2.12500000       3.33333351E-02  0.974844754       1.41361530E-03  0.974845767    
   2.20833349       3.33333351E-02  0.971293330       1.42757013E-03  0.971294403    
   2.29166675       3.33333351E-02  0.967334092       1.73988519E-03  0.967335641    
   2.37500000       3.33333351E-02  0.962951243       1.76645268E-03  0.962952852    
   2.45833349       3.33333351E-02  0.958126128       2.09369324E-03  0.958128452    
   2.50999999       3.33333351E-02  0.954874754       2.11441028E-03  0.954877079    
   2.52999997       3.33333351E-02  0.953587413       2.17672833E-03  0.953589857    
   2.54999995       3.33333351E-02  0.952275634       2.19565188E-03  0.952278197    
   2.56999993       3.33333351E-02  0.950939715       2.25754129E-03  0.950942397    
   2.58999991       3.33333351E-02  0.949580073       2.27431208E-03  0.949582815    
   2.60999990       3.33333351E-02  0.948197186       2.33526411E-03  0.948200047    
   2.63000011       3.33333351E-02  0.946791828       2.34901113E-03  0.946794748    
   2.65000010       3.33333351E-02  0.945364296       2.40889378E-03  0.945367336    
   2.67000008       3.33333351E-02  0.943915606       2.41948105E-03  0.943918705    
   2.69000006       3.33333351E-02  0.942446351       2.47742143E-03  0.942449629    
   2.71000004       3.33333351E-02  0.940957665       2.48433207E-03  0.940960944    
   2.73000002       3.33333351E-02  0.939450145       2.54014321E-03  0.939453542    
   2.75000000       3.33333351E-02  0.937925100       2.54237023E-03  0.937928557    
   2.76999998       3.33333351E-02  0.936383367       2.59562349E-03  0.936387002    
   2.78999996       3.33333351E-02  0.934826493       2.59289611E-03  0.934830129    
   2.80999994       3.33333351E-02  0.933255255       2.64328718E-03  0.933259010    
   2.82999992       3.33333351E-02  0.931671441       2.63476023E-03  0.931675136    
   2.84999990       3.33333351E-02  0.930076003       2.68185837E-03  0.930079877    
   2.86999989       3.33333351E-02  0.928470850       2.66706990E-03  0.928474665    
   2.89000010       3.33333351E-02  0.926856995       2.71076220E-03  0.926860929    
   2.91000009       3.33333351E-02  0.925236464       2.68921489E-03  0.925240397    
   2.93000007       3.33333351E-02  0.923610330       2.72931973E-03  0.923614323    
   2.95000005       3.33333351E-02  0.921980619       2.70107063E-03  0.921984553    
   2.97000003       3.33333351E-02  0.920348525       2.73754913E-03  0.920352638    
   2.99000001       3.33333351E-02  0.918716073       2.70195515E-03  0.918720007    
   3.00999999       3.33333351E-02  0.917084336       2.73494632E-03  0.917088389    
   3.02999997       3.33333351E-02  0.915455699       2.69166240E-03  0.915459692    
   3.04999995       3.33333351E-02  0.913831234       2.72119138E-03  0.913835287    
   3.06999993       3.33333351E-02  0.912212968       2.67086062E-03  0.912216902    
   3.08999991       3.33333351E-02  0.910601914       2.69699609E-03  0.910605907    
   3.10999990       3.33333351E-02  0.909000278       2.63954629E-03  0.909004092    
   3.12999988       3.33333351E-02  0.907408953       2.66281655E-03  0.907412887    
   3.14999986       3.33333351E-02  0.905830026       2.59813899E-03  0.905833721    
   3.17000008       3.33333351E-02  0.904264212       2.61925859E-03  0.904268026    
   3.19000006       3.33333351E-02  0.902713537       2.54756375E-03  0.902717173    
   3.21000004       3.33333351E-02  0.901178539       2.56712129E-03  0.901182234    
   3.23000002       3.33333351E-02  0.899661243       2.48881825E-03  0.899664700    
   3.25000000       3.33333351E-02  0.898161948       2.50720629E-03  0.898165405    
   3.26999998       3.33333351E-02  0.896682501       2.42284592E-03  0.896685719    
   3.28999996       3.33333351E-02  0.895223022       2.44049658E-03  0.895226359    
   3.30999994       3.33333351E-02  0.893785357       2.35050055E-03  0.893788457    
   3.32999992       3.33333351E-02  0.892369390       2.36848160E-03  0.892372549    
   3.34999990       3.33333351E-02  0.890976727       2.27299891E-03  0.890979648    
   3.36999989       3.33333351E-02  0.889607072       2.29196157E-03  0.889609993    
   3.39000010       3.33333351E-02  0.888261914       2.19134195E-03  0.888264596    
   3.41000009       3.33333351E-02  0.886940837       2.21192557E-03  0.886943579    
   3.43000007       3.33333351E-02  0.885645270       2.10666447E-03  0.885647774    
   3.45000005       3.33333351E-02  0.884374499       2.12947442E-03  0.884377062    
   3.47000003       3.33333351E-02  0.883129835       2.01977137E-03  0.883132160    
   3.49000001       3.33333351E-02  0.881910563       2.04531499E-03  0.881912947    
   3.52500010       3.33333351E-02  0.879848421       1.93175080E-03  0.879850566    
   3.57499981       3.33333351E-02  0.877027929       1.82935339E-03  0.877029836    
   3.62500000       3.33333351E-02  0.874368966       1.71658059E-03  0.874370635    
   3.67500019       3.33333351E-02  0.871868134       1.61863468E-03  0.871869624    
   3.72499990       3.33333351E-02  0.869522512       1.50989741E-03  0.869523823    
   3.77500010       3.33333351E-02  0.867325425       1.42072688E-03  0.867326617    
   3.82499981       3.33333351E-02  0.865271688       1.31894380E-03  0.865272701    
   3.87500000       3.33333351E-02  0.863352537       1.24132808E-03  0.863353431    
   3.92500019       3.33333351E-02  0.861562610       1.14688277E-03  0.861563385    
   3.97499990       3.33333351E-02  0.859892368       1.08177925E-03  0.859893024    
   4.02500010       3.33333351E-02  0.858335614       9.95762763E-04  0.858336210    
   4.07499981       3.33333351E-02  0.856881857       9.44566214E-04  0.856882393    
   4.12500000       3.33333351E-02  0.855526090       8.65199254E-04  0.855526567    
   4.17500019       3.33333351E-02  0.854259491       8.25757510E-04  0.854259849    
   4.22499990       3.33333351E-02  0.853078365       7.51218293E-04  0.853078663    
   4.27500010       3.33333351E-02  0.851974964       7.22148106E-04  0.851975262    
   4.32499981       3.33333351E-02  0.850947559       6.50020665E-04  0.850947797    
   4.37500000       3.33333351E-02  0.849987388       6.32411626E-04  0.849987626    
   4.42500019       3.33333351E-02  0.849093080       5.62201778E-04  0.849093258    
   4.47499990       3.33333351E-02  0.848255455       5.56858315E-04  0.848255634    
   4.52500010       3.33333351E-02  0.847474694       4.86258592E-04  0.847474873    
   4.57499981       3.33333351E-02  0.846741855       4.92911786E-04  0.846741974    
   4.62500000       3.33333351E-02  0.846058547       4.20041324E-04  0.846058667    
   4.67500019       3.33333351E-02  0.845414996       4.39769472E-04  0.845415115    
   4.72499990       3.33333351E-02  0.844814301       3.62934457E-04  0.844814360    
   4.77500010       3.33333351E-02  0.844245195       3.97287571E-04  0.844245315    
   4.82499981       3.33333351E-02  0.843712151       3.14798352E-04  0.843712211    
   4.87500000       3.33333351E-02  0.843203664       3.64271720E-04  0.843203723    
   4.92500019       3.33333351E-02  0.842726946       2.72315810E-04  0.842726946    
   4.97499990       3.33333351E-02  0.842269063       3.38887650E-04  0.842269123    
   5.02500010       3.33333351E-02  0.841838658       2.35357453E-04  0.841838658    
   5.07499981       3.33333351E-02  0.841420949       3.21730709E-04  0.841421008    
   5.12500000       3.33333351E-02  0.841026068       2.04685057E-04  0.841026127    
   5.17500019       3.33333351E-02  0.840638399       3.11785057E-04  0.840638459    
   5.22499990       3.33333351E-02  0.840270281       1.78346600E-04  0.840270340    
   5.27500010       3.33333351E-02  0.839904070       3.08910880E-04  0.839904130    
   5.32499981       3.33333351E-02  0.839555502       1.54465277E-04  0.839555502    
   5.37500000       3.33333351E-02  0.839204729       3.11629439E-04  0.839204788    
   5.42500019       3.33333351E-02  0.838869870       1.32828252E-04  0.838869870    
   5.47499990       3.33333351E-02  0.838530540       3.17289378E-04  0.838530600    
   5.52500010       3.33333351E-02  0.838207126       1.11225323E-04  0.838207126    
   5.57500029       3.33333351E-02  0.837878525       3.23916989E-04  0.837878585    
   5.62500000       3.33333351E-02  0.837565839       8.96762795E-05  0.837565839    
   5.67500019       3.33333351E-02  0.837248445       3.29786359E-04  0.837248504    
   5.72499990       3.33333351E-02  0.836946487       6.87147767E-05  0.836946487    
   5.77500010       3.33333351E-02  0.836643100       3.31393530E-04  0.836643159    
   5.82499981       3.33333351E-02  0.836352885       5.07975092E-05  0.836352885    
   5.87500000       3.33333351E-02  0.836066246       3.26190609E-04  0.836066306    
   5.92500019       3.33333351E-02  0.835786700       4.10018147E-05  0.835786700    
   5.97499990       3.33333351E-02  0.835520148       3.08486837E-04  0.835520208    
   6.02500010       3.33333351E-02  0.835251391       4.35864204E-05  0.835251391    
   6.07500029       3.33333351E-02  0.835009694       2.71999539E-04  0.835009754    
   6.12500000       3.33333351E-02  0.834753394       6.26598194E-05  0.834753394    
   6.17499971       3.33333351E-02  0.834543467       2.09784033E-04  0.834543526    
   6.22499990       3.33333351E-02  0.834303796       1.01930455E-04  0.834303796    
   6.27500010       3.33333351E-02  0.834131598       1.19432123E-04  0.834131598    
   6.32499981       3.33333351E-02  0.833917618       1.57216797E-04  0.833917618    
   6.37500000       3.33333351E-02  0.833784401       1.12052940E-05  0.833784401    
   6.42500019       3.33333351E-02  0.833608687       2.13551757E-04  0.833608747    
   6.47499990       3.33333351E-02  0.833506942      -8.78275459E-05  0.833506942    
   6.52500010       3.33333351E-02  0.833386779       2.37595304E-04  0.833386838    
   6.57499981       3.33333351E-02  0.833303571      -1.37650553E-04  0.833303571    
   6.62500000       3.33333351E-02  0.833248973       1.99061295E-04  0.833249032    
   6.67499971       3.33333351E-02  0.833178401      -1.16773073E-04  0.833178401    
   6.72499990       3.33333351E-02  0.833175421       1.08360597E-04  0.833175421    
   6.77500010       3.33333351E-02  0.833126843      -5.66604031E-05  0.833126843    
   6.82500029       3.33333351E-02  0.833139420       2.61392343E-05  0.833139420    
   6.87500000       3.33333351E-02  0.833119690      -1.45182912E-05  0.833119690    
   6.92500019       3.33333351E-02  0.833119273      -5.97804092E-06  0.833119273    
   6.97499990       3.33333351E-02  0.833113730      -1.64462313E-06  0.833113730    
   0.00000000      0.100000009       1.00000000       0.00000000       1.00000000    
   4.16666679E-02  0.100000009       1.00007510      -1.73565830E-04   1.00007510    
  0.125000000      0.100000009       1.00004172       2.53972365E-04   1.00004172    
  0.208333343      0.100000009      0.999973416      -8.77240527E-05  0.999973416    
  0.291666687      0.100000009      0.999870241       3.40169703E-04  0.999870300    
  0.375000000      0.100000009      0.999728322       3.23874315E-06  0.999728322    
  0.458333373      0.100000009      0.999544740       4.39165451E-04  0.999544799    
  0.541666746      0.100000009      0.999319077       1.05548286E-04  0.999319077    
  0.625000000      0.100000009      0.999046326       5.54757251E-04  0.999046445    
  0.708333373      0.100000009      0.998721778       2.30769539E-04  0.998721778    
  0.791666687      0.100000009      0.998340309       6.91609224E-04  0.998340547    
  0.875000000      0.100000009      0.997894764       3.84189072E-04  0.997894824    
  0.958333373      0.100000009      0.997379541       8.61049048E-04  0.997379899    
   1.04166675      0.100000009      0.996785760       5.76123013E-04  0.996785939    
   1.12500000      0.100000009      0.996104181       1.07529853E-03  0.996104777    
   1.20833337      0.100000009      0.995322824       8.16184562E-04  0.995323181    
   1.29166675      0.100000009      0.994425654       1.35111471E-03  0.994426548    
   1.37500000      0.100000009      0.993400455       1.12184556E-03  0.993401110    
   1.45833337      0.100000009      0.992231488       1.70101377E-03  0.992232978    
   1.54166675      0.100000009      0.990902722       1.51000707E-03  0.990903854    
   1.62500012      0.100000009      0.989389837       2.14446289E-03  0.989392161    
   1.70833349      0.100000009      0.987674117       1.99973607E-03  0.987676144    
   1.79166675      0.100000009      0.985728920       2.70012394E-03  0.985732615    
   1.87500000      0.100000009      0.983528197       2.61433842E-03  0.983531654    
   1.95833349      0.100000009      0.981038570       3.39354062E-03  0.981044412    
   2.04166698      0.100000009      0.978232980       3.37197445E-03  0.978238821    
   2.12500000      0.100000009      0.975075722       4.23511490E-03  0.975084901    
   2.20833349      0.100000009      0.971543074       4.27347654E-03  0.971552432    
   2.29166675      0.100000009      0.967599571       5.21628093E-03  0.967613637    
   2.37500000      0.100000009      0.963225424       5.29576140E-03  0.963239968    
   2.45833349      0.100000009      0.958400786       6.28427044E-03  0.958421409    
   2.50999999      0.100000009      0.955144167       6.34723529E-03  0.955165267    
   2.52999997      0.100000009      0.953853965       6.53572567E-03  0.953876376    
   2.54999995      0.100000009      0.952538669       6.59333821E-03  0.952561498    
   2.56999993      0.100000009      0.951198339       6.78088609E-03  0.951222479    
   2.58999991      0.100000009      0.949833632       6.83173072E-03  0.949858189    
   2.60999990      0.100000009      0.948444724       7.01687764E-03  0.948470652    
   2.63000011      0.100000009      0.947032452       7.05890404E-03  0.947058797    
   2.65000010      0.100000009      0.945597231       7.24049006E-03  0.945624948    
   2.67000008      0.100000009      0.944140077       7.27283722E-03  0.944168031    
   2.69000006      0.100000009      0.942661405       7.44938059E-03  0.942690849    
   2.71000004      0.100000009      0.941162467       7.47014955E-03  0.941192091    
   2.73000002      0.100000009      0.939643860       7.64010614E-03  0.939674914    
   2.75000000      0.100000009      0.938106775       7.64735509E-03  0.938137949    
   2.76999998      0.100000009      0.936552286       7.80938799E-03  0.936584830    