 TITLE= "TESTPLOT" 
 VARIABLES="x","y","u","v","magu" 
 ZONE T="1", I=         151 , J=          31
   0.00000000       0.00000000       1.00000000       0.00000000       1.00000000    
   4.16666679E-02   0.00000000       1.00002146       0.00000000       1.00002146    
  0.125000000       0.00000000       1.00004673       0.00000000       1.00004673    
  0.208333343       0.00000000       1.00003803       0.00000000       1.00003803    
  0.291666687       0.00000000      0.999993205       0.00000000      0.999993205    
  0.375000000       0.00000000      0.999907970       0.00000000      0.999907970    
  0.458333373       0.00000000      0.999779224       0.00000000      0.999779224    
  0.541666746       0.00000000      0.999604344       0.00000000      0.999604344    
  0.625000000       0.00000000      0.999380350       0.00000000      0.999380350    
  0.708333373       0.00000000      0.999104798       0.00000000      0.999104798    
  0.791666687       0.00000000      0.998766124       0.00000000      0.998766124    
  0.875000000       0.00000000      0.998361528       0.00000000      0.998361528    
  0.958333373       0.00000000      0.997875333       0.00000000      0.997875333    
   1.04166675       0.00000000      0.997313142       0.00000000      0.997313142    
   1.12500000       0.00000000      0.996650696       0.00000000      0.996650696    
   1.20833337       0.00000000      0.995897651       0.00000000      0.995897651    
   1.29166675       0.00000000      0.995015383       0.00000000      0.995015383    
   1.37500000       0.00000000      0.994007707       0.00000000      0.994007707    
   1.45833337       0.00000000      0.992834687       0.00000000      0.992834687    
   1.54166675       0.00000000      0.991497755       0.00000000      0.991497755    
   1.62500012       0.00000000      0.989962399       0.00000000      0.989962399    
   1.70833349       0.00000000      0.988227248       0.00000000      0.988227248    
   1.79166675       0.00000000      0.986259282       0.00000000      0.986259282    
   1.87500000       0.00000000      0.984054625       0.00000000      0.984054625    
   1.95833349       0.00000000      0.981570899       0.00000000      0.981570899    
   2.04166698       0.00000000      0.978801250       0.00000000      0.978801250    
   2.12500000       0.00000000      0.975697041       0.00000000      0.975697041    
   2.20833349       0.00000000      0.972254872       0.00000000      0.972254872    
   2.29166675       0.00000000      0.968425274       0.00000000      0.968425274    
   2.37500000       0.00000000      0.964213729       0.00000000      0.964213729    
   2.45833349       0.00000000      0.959593117       0.00000000      0.959593117    
   2.50999999       0.00000000      0.956461906       0.00000000      0.956461906    
   2.52999997       0.00000000      0.955187201       0.00000000      0.955187201    
   2.54999995       0.00000000      0.953892589       0.00000000      0.953892589    
   2.56999993       0.00000000      0.952576578       0.00000000      0.952576578    
   2.58999991       0.00000000      0.951239824       0.00000000      0.951239824    
   2.60999990       0.00000000      0.949881911       0.00000000      0.949881911    
   2.63000011       0.00000000      0.948504388       0.00000000      0.948504388    
   2.65000010       0.00000000      0.947107255       0.00000000      0.947107255    
   2.67000008       0.00000000      0.945692420       0.00000000      0.945692420    
   2.69000006       0.00000000      0.944260240       0.00000000      0.944260240    
   2.71000004       0.00000000      0.942812324       0.00000000      0.942812324    
   2.73000002       0.00000000      0.941349149       0.00000000      0.941349149    
   2.75000000       0.00000000      0.939872682       0.00000000      0.939872682    
   2.76999998       0.00000000      0.938383520       0.00000000      0.938383520    
   2.78999996       0.00000000      0.936883628       0.00000000      0.936883628    
   2.80999994       0.00000000      0.935374022       0.00000000      0.935374022    
   2.82999992       0.00000000      0.933856606       0.00000000      0.933856606    
   2.84999990       0.00000000      0.932332516       0.00000000      0.932332516    
   2.86999989       0.00000000      0.930803657       0.00000000      0.930803657    
   2.89000010       0.00000000      0.929271400       0.00000000      0.929271400    
   2.91000009       0.00000000      0.927737594       0.00000000      0.927737594    
   2.93000007       0.00000000      0.926203668       0.00000000      0.926203668    
   2.95000005       0.00000000      0.924671650       0.00000000      0.924671650    
   2.97000003       0.00000000      0.923142910       0.00000000      0.923142910    
   2.99000001       0.00000000      0.921619594       0.00000000      0.921619594    
   3.00999999       0.00000000      0.920103073       0.00000000      0.920103073    
   3.02999997       0.00000000      0.918595254       0.00000000      0.918595254    
   3.04999995       0.00000000      0.917097449       0.00000000      0.917097449    
   3.06999993       0.00000000      0.915611744       0.00000000      0.915611744    
   3.08999991       0.00000000      0.914139509       0.00000000      0.914139509    
   3.10999990       0.00000000      0.912682593       0.00000000      0.912682593    
   3.12999988       0.00000000      0.911242247       0.00000000      0.911242247    
   3.14999986       0.00000000      0.909820318       0.00000000      0.909820318    
   3.17000008       0.00000000      0.908417821       0.00000000      0.908417821    
   3.19000006       0.00000000      0.907036424       0.00000000      0.907036424    
   3.21000004       0.00000000      0.905677199       0.00000000      0.905677199    
   3.23000002       0.00000000      0.904341698       0.00000000      0.904341698    
   3.25000000       0.00000000      0.903030872       0.00000000      0.903030872    
   3.26999998       0.00000000      0.901745975       0.00000000      0.901745975    
   3.28999996       0.00000000      0.900487781       0.00000000      0.900487781    
   3.30999994       0.00000000      0.899257660       0.00000000      0.899257660    
   3.32999992       0.00000000      0.898055911       0.00000000      0.898055911    
   3.34999990       0.00000000      0.896883845       0.00000000      0.896883845    
   3.36999989       0.00000000      0.895741701       0.00000000      0.895741701    
   3.39000010       0.00000000      0.894630492       0.00000000      0.894630492    
   3.41000009       0.00000000      0.893550456       0.00000000      0.893550456    
   3.43000007       0.00000000      0.892502427       0.00000000      0.892502427    
   3.45000005       0.00000000      0.891486466       0.00000000      0.891486466    
   3.47000003       0.00000000      0.890503287       0.00000000      0.890503287    
   3.49000001       0.00000000      0.889562130       0.00000000      0.889562130    
   3.52500010       0.00000000      0.887951612       0.00000000      0.887951612    
   3.57499981       0.00000000      0.885772705       0.00000000      0.885772705    
   3.62500000       0.00000000      0.883801043       0.00000000      0.883801043    
   3.67500019       0.00000000      0.882037640       0.00000000      0.882037640    
   3.72499990       0.00000000      0.880483568       0.00000000      0.880483568    
   3.77500010       0.00000000      0.879139662       0.00000000      0.879139662    
   3.82499981       0.00000000      0.878007591       0.00000000      0.878007591    
   3.87500000       0.00000000      0.877089500       0.00000000      0.877089500    
   3.92500019       0.00000000      0.876387954       0.00000000      0.876387954    
   3.97499990       0.00000000      0.875906587       0.00000000      0.875906587    
   4.02500010       0.00000000      0.875649393       0.00000000      0.875649393    
   4.07499981       0.00000000      0.875621796       0.00000000      0.875621796    
   4.12500000       0.00000000      0.875831246       0.00000000      0.875831246    
   4.17500019       0.00000000      0.876287162       0.00000000      0.876287162    
   4.22499990       0.00000000      0.877000034       0.00000000      0.877000034    
   4.27500010       0.00000000      0.877980947       0.00000000      0.877980947    
   4.32499981       0.00000000      0.879241586       0.00000000      0.879241586    
   4.37500000       0.00000000      0.880792499       0.00000000      0.880792499    
   4.42500019       0.00000000      0.882642031       0.00000000      0.882642031    
   4.47499990       0.00000000      0.884795547       0.00000000      0.884795547    
   4.52500010       0.00000000      0.887254238       0.00000000      0.887254238    
   4.57499981       0.00000000      0.890014172       0.00000000      0.890014172    
   4.62500000       0.00000000      0.893064201       0.00000000      0.893064201    
   4.67500019       0.00000000      0.896387398       0.00000000      0.896387398    
   4.72499990       0.00000000      0.899959683       0.00000000      0.899959683    
   4.77500010       0.00000000      0.903750777       0.00000000      0.903750777    
   4.82499981       0.00000000      0.907724440       0.00000000      0.907724440    
   4.87500000       0.00000000      0.911839783       0.00000000      0.911839783    
   4.92500019       0.00000000      0.916053653       0.00000000      0.916053653    
   4.97499990       0.00000000      0.920321524       0.00000000      0.920321524    
   5.02500010       0.00000000      0.924600005       0.00000000      0.924600005    
   5.07499981       0.00000000      0.928848147       0.00000000      0.928848147    
   5.12500000       0.00000000      0.933028758       0.00000000      0.933028758    
   5.17500019       0.00000000      0.937109113       0.00000000      0.937109113    
   5.22499990       0.00000000      0.941061974       0.00000000      0.941061974    
   5.27500010       0.00000000      0.944865823       0.00000000      0.944865823    
   5.32499981       0.00000000      0.948504090       0.00000000      0.948504090    
   5.37500000       0.00000000      0.951964617       0.00000000      0.951964617    
   5.42500019       0.00000000      0.955240607       0.00000000      0.955240607    
   5.47499990       0.00000000      0.958328485       0.00000000      0.958328485    
   5.52500010       0.00000000      0.961228251       0.00000000      0.961228251    
   5.57500029       0.00000000      0.963942170       0.00000000      0.963942170    
   5.62500000       0.00000000      0.966475606       0.00000000      0.966475606    
   5.67500019       0.00000000      0.968834877       0.00000000      0.968834877    
   5.72499990       0.00000000      0.971027792       0.00000000      0.971027792    
   5.77500010       0.00000000      0.973062992       0.00000000      0.973062992    
   5.82499981       0.00000000      0.974950135       0.00000000      0.974950135    
   5.87500000       0.00000000      0.976697087       0.00000000      0.976697087    
   5.92500019       0.00000000      0.978314161       0.00000000      0.978314161    
   5.97499990       0.00000000      0.979810238       0.00000000      0.979810238    
   6.02500010       0.00000000      0.981194794       0.00000000      0.981194794    
   6.07500029       0.00000000      0.982475758       0.00000000      0.982475758    
   6.12500000       0.00000000      0.983661771       0.00000000      0.983661771    
   6.17499971       0.00000000      0.984759331       0.00000000      0.984759331    
   6.22499990       0.00000000      0.985775888       0.00000000      0.985775888    
   6.27500010       0.00000000      0.986716032       0.00000000      0.986716032    
   6.32499981       0.00000000      0.987585783       0.00000000      0.987585783    
   6.37500000       0.00000000      0.988387465       0.00000000      0.988387465    
   6.42500019       0.00000000      0.989124715       0.00000000      0.989124715    
   6.47499990       0.00000000      0.989796758       0.00000000      0.989796758    
   6.52500010       0.00000000      0.990404606       0.00000000      0.990404606    
   6.57499981       0.00000000      0.990945220       0.00000000      0.990945220    
   6.62500000       0.00000000      0.991418898       0.00000000      0.991418898    
   6.67499971       0.00000000      0.991822958       0.00000000      0.991822958    
   6.72499990       0.00000000      0.992160559       0.00000000      0.992160559    
   6.77500010       0.00000000      0.992432117       0.00000000      0.992432117    
   6.82500029       0.00000000      0.992645025       0.00000000      0.992645025    
   6.87500000       0.00000000      0.992801726       0.00000000      0.992801726    
   6.92500019       0.00000000      0.992919207       0.00000000      0.992919207    
   6.97499990       0.00000000      0.992980123       0.00000000      0.992980123    
   0.00000000       3.33333351E-02   1.00000000       0.00000000       1.00000000    
   4.16666679E-02   3.33333351E-02   1.00002146       6.53707275E-06   1.00002146    
  0.125000000       3.33333351E-02   1.00004673       2.10992930E-05   1.00004673    
  0.208333343       3.33333351E-02   1.00003803       3.40555453E-05   1.00003803    
  0.291666687       3.33333351E-02  0.999993205       4.89764461E-05  0.999993205    
  0.375000000       3.33333351E-02  0.999907970       6.49707436E-05  0.999907970    
  0.458333373       3.33333351E-02  0.999779224       8.21354042E-05  0.999779224    
  0.541666746       3.33333351E-02  0.999604344       9.99079130E-05  0.999604344    
  0.625000000       3.33333351E-02  0.999380350       1.19269695E-04  0.999380350    
  0.708333373       3.33333351E-02  0.999104798       1.38663585E-04  0.999104798    
  0.791666687       3.33333351E-02  0.998766124       1.67097271E-04  0.998766124    
  0.875000000       3.33333351E-02  0.998361528       1.88525621E-04  0.998361528    
  0.958333373       3.33333351E-02  0.997875333       2.29389523E-04  0.997875392    
   1.04166675       3.33333351E-02  0.997313142       2.46096257E-04  0.997313142    
   1.12500000       3.33333351E-02  0.996650696       3.06233094E-04  0.996650755    
   1.20833337       3.33333351E-02  0.995897651       3.15213256E-04  0.995897710    
   1.29166675       3.33333351E-02  0.995015383       4.06063104E-04  0.995015502    
   1.37500000       3.33333351E-02  0.994007707       4.11909074E-04  0.994007766    
   1.45833337       3.33333351E-02  0.992834687       5.34827763E-04  0.992834806    
   1.54166675       3.33333351E-02  0.991497755       5.39607601E-04  0.991497934    
   1.62500012       3.33333351E-02  0.989962399       6.89990877E-04  0.989962637    
   1.70833349       3.33333351E-02  0.988227248       6.96107163E-04  0.988227487    
   1.79166675       3.33333351E-02  0.986259282       8.72977485E-04  0.986259699    
   1.87500000       3.33333351E-02  0.984054625       8.82356137E-04  0.984055042    
   1.95833349       3.33333351E-02  0.981570899       1.09328050E-03  0.981571496    
   2.04166698       3.33333351E-02  0.978801250       1.10836176E-03  0.978801847    
   2.12500000       3.33333351E-02  0.975697041       1.35848473E-03  0.975697994    
   2.20833349       3.33333351E-02  0.972254872       1.37638371E-03  0.972255826    
   2.29166675       3.33333351E-02  0.968425274       1.66636892E-03  0.968426704    
   2.37500000       3.33333351E-02  0.964213729       1.68036541E-03  0.964215159    
   2.45833349       3.33333351E-02  0.959593117       1.99850323E-03  0.959595203    
   2.50999999       3.33333351E-02  0.956461906       1.99247268E-03  0.956463993    
   2.52999997       3.33333351E-02  0.955187201       2.07367935E-03  0.955189466    
   2.54999995       3.33333351E-02  0.953892589       2.06343248E-03  0.953894794    
   2.56999993       3.33333351E-02  0.952576578       2.14705896E-03  0.952579021    
   2.58999991       3.33333351E-02  0.951239824       2.13304558E-03  0.951242208    
   2.60999990       3.33333351E-02  0.949881911       2.21837708E-03  0.949884474    
   2.63000011       3.33333351E-02  0.948504388       2.19946937E-03  0.948506951    
   2.65000010       3.33333351E-02  0.947107255       2.28522648E-03  0.947110057    
   2.67000008       3.33333351E-02  0.945692420       2.26110895E-03  0.945695102    
   2.69000006       3.33333351E-02  0.944260240       2.34623207E-03  0.944263101    
   2.71000004       3.33333351E-02  0.942812324       2.31711613E-03  0.942815185    
   2.73000002       3.33333351E-02  0.941349149       2.40138453E-03  0.941352189    
   2.75000000       3.33333351E-02  0.939872682       2.36681267E-03  0.939875662    
   2.76999998       3.33333351E-02  0.938383520       2.44926382E-03  0.938386738    
   2.78999996       3.33333351E-02  0.936883628       2.40888307E-03  0.936886728    
   2.80999994       3.33333351E-02  0.935374022       2.48844223E-03  0.935377300    
   2.82999992       3.33333351E-02  0.933856606       2.44213617E-03  0.933859766    
   2.84999990       3.33333351E-02  0.932332516       2.51839519E-03  0.932335913    
   2.86999989       3.33333351E-02  0.930803657       2.46606651E-03  0.930806935    
   2.89000010       3.33333351E-02  0.929271400       2.53857556E-03  0.929274857    
   2.91000009       3.33333351E-02  0.927737594       2.47995695E-03  0.927740872    
   2.93000007       3.33333351E-02  0.926203668       2.54839403E-03  0.926207185    
   2.95000005       3.33333351E-02  0.924671650       2.48300703E-03  0.924674988    
   2.97000003       3.33333351E-02  0.923142910       2.54689087E-03  0.923146427    
   2.99000001       3.33333351E-02  0.921619594       2.47484306E-03  0.921622932    
   3.00999999       3.33333351E-02  0.920103073       2.53431546E-03  0.920106590    
   3.02999997       3.33333351E-02  0.918595254       2.45606597E-03  0.918598533    
   3.04999995       3.33333351E-02  0.917097449       2.51088990E-03  0.917100906    
   3.06999993       3.33333351E-02  0.915611744       2.42608623E-03  0.915614963    
   3.08999991       3.33333351E-02  0.914139509       2.47608568E-03  0.914142847    
   3.10999990       3.33333351E-02  0.912682593       2.38536648E-03  0.912685692    
   3.12999988       3.33333351E-02  0.911242247       2.43076566E-03  0.911245465    
   3.14999986       3.33333351E-02  0.909820318       2.33442569E-03  0.909823298    
   3.17000008       3.33333351E-02  0.908417821       2.37556105E-03  0.908420920    
   3.19000006       3.33333351E-02  0.907036424       2.27401219E-03  0.907039285    
   3.21000004       3.33333351E-02  0.905677199       2.31104251E-03  0.905680120    
   3.23000002       3.33333351E-02  0.904341698       2.20443076E-03  0.904344380    
   3.25000000       3.33333351E-02  0.903030872       2.23822775E-03  0.903033614    
   3.26999998       3.33333351E-02  0.901745975       2.12675286E-03  0.901748478    
   3.28999996       3.33333351E-02  0.900487781       2.15795264E-03  0.900490344    
   3.30999994       3.33333351E-02  0.899257660       2.04201834E-03  0.899259984    
   3.32999992       3.33333351E-02  0.898055911       2.07115198E-03  0.898058295    
   3.34999990       3.33333351E-02  0.896883845       1.95122685E-03  0.896885991    
   3.36999989       3.33333351E-02  0.895741701       1.97876827E-03  0.895743906    
   3.39000010       3.33333351E-02  0.894630492       1.85534626E-03  0.894632399    
   3.41000009       3.33333351E-02  0.893550456       1.88192690E-03  0.893552423    
   3.43000007       3.33333351E-02  0.892502427       1.75512419E-03  0.892504156    
   3.45000005       3.33333351E-02  0.891486466       1.78122951E-03  0.891488254    
   3.47000003       3.33333351E-02  0.890503287       1.65174971E-03  0.890504837    
   3.49000001       3.33333351E-02  0.889562130       1.67754479E-03  0.889563739    
   3.52500010       3.33333351E-02  0.887951612       1.54502655E-03  0.887952924    
   3.57499981       3.33333351E-02  0.885772705       1.40991481E-03  0.885773838    
   3.62500000       3.33333351E-02  0.883801043       1.27261854E-03  0.883801937    
   3.67500019       3.33333351E-02  0.882037640       1.13414670E-03  0.882038414    
   3.72499990       3.33333351E-02  0.880483568       9.94609669E-04  0.880484164    
   3.77500010       3.33333351E-02  0.879139662       8.54269660E-04  0.879140079    
   3.82499981       3.33333351E-02  0.878007591       7.12055946E-04  0.878007889    
   3.87500000       3.33333351E-02  0.877089500       5.68486343E-04  0.877089679    
   3.92500019       3.33333351E-02  0.876387954       4.22356417E-04  0.876388073    
   3.97499990       3.33333351E-02  0.875906587       2.73627142E-04  0.875906587    
   4.02500010       3.33333351E-02  0.875649393       1.21641016E-04  0.875649393    
   4.07499981       3.33333351E-02  0.875621796      -3.47715795E-05  0.875621796    
   4.12500000       3.33333351E-02  0.875831246      -1.97195885E-04  0.875831306    
   4.17500019       3.33333351E-02  0.876287162      -3.66516208E-04  0.876287222    
   4.22499990       3.33333351E-02  0.877000034      -5.43495524E-04  0.877000213    
   4.27500010       3.33333351E-02  0.877980947      -7.27962237E-04  0.877981246    
   4.32499981       3.33333351E-02  0.879241586      -9.20984370E-04  0.879242063    
   4.37500000       3.33333351E-02  0.880792499      -1.11987675E-03  0.880793214    
   4.42500019       3.33333351E-02  0.882642031      -1.32447470E-03  0.882643044    
   4.47499990       3.33333351E-02  0.884795547      -1.53085426E-03  0.884796858    
   4.52500010       3.33333351E-02  0.887254238      -1.73754548E-03  0.887255967    
   4.57499981       3.33333351E-02  0.890014172      -1.93881802E-03  0.890016258    
   4.62500000       3.33333351E-02  0.893064201      -2.13108840E-03  0.893066764    
   4.67500019       3.33333351E-02  0.896387398      -2.30992329E-03  0.896390378    
   4.72499990       3.33333351E-02  0.899959683      -2.47026677E-03  0.899963021    
   4.77500010       3.33333351E-02  0.903750777      -2.60882499E-03  0.903754532    
   4.82499981       3.33333351E-02  0.907724440      -2.72088614E-03  0.907728493    
   4.87500000       3.33333351E-02  0.911839783      -2.80490634E-03  0.911844075    
   4.92500019       3.33333351E-02  0.916053653      -2.85934960E-03  0.916058123    
   4.97499990       3.33333351E-02  0.920321524      -2.88382987E-03  0.920326054    
   5.02500010       3.33333351E-02  0.924600005      -2.87996070E-03  0.924604475    
   5.07499981       3.33333351E-02  0.928848147      -2.84970319E-03  0.928852499    
   5.12500000       3.33333351E-02  0.933028758      -2.79552955E-03  0.933032930    
   5.17500019       3.33333351E-02  0.937109113      -2.72106589E-03  0.937113047    
   5.22499990       3.33333351E-02  0.941061974      -2.63011362E-03  0.941065669    
   5.27500010       3.33333351E-02  0.944865823      -2.52583157E-03  0.944869220    
   5.32499981       3.33333351E-02  0.948504090      -2.41204980E-03  0.948507190    
   5.37500000       3.33333351E-02  0.951964617      -2.29059579E-03  0.951967359    
   5.42500019       3.33333351E-02  0.955240607      -2.16646818E-03  0.955243111    
   5.47499990       3.33333351E-02  0.958328485      -2.03918619E-03  0.958330691    
   5.52500010       3.33333351E-02  0.961228251      -1.91383006E-03  0.961230159    
   5.57500029       3.33333351E-02  0.963942170      -1.78794889E-03  0.963943839    
   5.62500000       3.33333351E-02  0.966475606      -1.66836299E-03  0.966477036    
   5.67500019       3.33333351E-02  0.968834877      -1.54942833E-03  0.968836129    
   5.72499990       3.33333351E-02  0.971027792      -1.43874681E-03  0.971028864    
   5.77500010       3.33333351E-02  0.973062992      -1.32951175E-03  0.973063946    
   5.82499981       3.33333351E-02  0.974950135      -1.22995547E-03  0.974950910    
   5.87500000       3.33333351E-02  0.976697087      -1.12984423E-03  0.976697743    
   5.92500019       3.33333351E-02  0.978314161      -1.04230223E-03  0.978314698    
   5.97499990       3.33333351E-02  0.979810238      -9.52454284E-04  0.979810715    
   6.02500010       3.33333351E-02  0.981194794      -8.76264530E-04  0.981195211    
   6.07500029       3.33333351E-02  0.982475758      -7.95694999E-04  0.982476056    
   6.12500000       3.33333351E-02  0.983661771      -7.30180822E-04  0.983662009    
   6.17499971       3.33333351E-02  0.984759331      -6.57650991E-04  0.984759569    
   6.22499990       3.33333351E-02  0.985775888      -6.02161395E-04  0.985776067    
   6.27500010       3.33333351E-02  0.986716032      -5.36467647E-04  0.986716211    
   6.32499981       3.33333351E-02  0.987585783      -4.90494538E-04  0.987585902    
   6.37500000       3.33333351E-02  0.988387465      -4.30794287E-04  0.988387525    
   6.42500019       3.33333351E-02  0.989124715      -3.93430470E-04  0.989124775    
   6.47499990       3.33333351E-02  0.989796758      -3.37878650E-04  0.989796817    
   6.52500010       3.33333351E-02  0.990404606      -3.08554881E-04  0.990404665    
   6.57499981       3.33333351E-02  0.990945220      -2.55774357E-04  0.990945280    
   6.62500000       3.33333351E-02  0.991418898      -2.33812068E-04  0.991418898    
   6.67499971       3.33333351E-02  0.991822958      -1.82673539E-04  0.991823018    
   6.72499990       3.33333351E-02  0.992160559      -1.67439721E-04  0.992160559    
   6.77500010       3.33333351E-02  0.992432117      -1.15862662E-04  0.992432117    
   6.82500029       3.33333351E-02  0.992645025      -1.06468346E-04  0.992645025    
   6.87500000       3.33333351E-02  0.992801726      -5.30571124E-05  0.992801726    
   6.92500019       3.33333351E-02  0.992919207      -4.85028795E-05  0.992919207    
   6.97499990       3.33333351E-02  0.992980123       8.18741046E-06  0.992980123    
   0.00000000      0.100000009       1.00000000       0.00000000       1.00000000    
   4.16666679E-02  0.100000009       1.00002182       1.92888601E-05   1.00002182    
  0.125000000      0.100000009       1.00004935       6.19014318E-05   1.00004935    
  0.208333343      0.100000009       1.00004137       1.02954466E-04   1.00004137    
  0.291666687      0.100000009      0.999995947       1.46628707E-04  0.999995947    
  0.375000000      0.100000009      0.999913394       1.93082727E-04  0.999913394    
  0.458333373      0.100000009      0.999788165       2.45393079E-04  0.999788225    
  0.541666746      0.100000009      0.999617100       2.97705206E-04  0.999617100    
  0.625000000      0.100000009      0.999395728       3.57772020E-04  0.999395788    
  0.708333373      0.100000009      0.999122500       4.14201175E-04  0.999122620    
  0.791666687      0.100000009      0.998787761       4.99932561E-04  0.998787880    
  0.875000000      0.100000009      0.998389006       5.62292873E-04  0.998389184    
  0.958333373      0.100000009      0.997909307       6.86224084E-04  0.997909546    
   1.04166675      0.100000009      0.997355580       7.33477063E-04  0.997355819    
   1.12500000      0.100000009      0.996701479       9.16910707E-04  0.996701896    
   1.20833337      0.100000009      0.995956659       9.40770842E-04  0.995957077    
   1.29166675      0.100000009      0.995082974       1.21617690E-03  0.995083749    
   1.37500000      0.100000009      0.994086087       1.22918910E-03  0.994086862    
   1.45833337      0.100000009      0.992925048       1.60146761E-03  0.992926359    
   1.54166675      0.100000009      0.991600752       1.61168631E-03  0.991602063    
   1.62500012      0.100000009      0.990081072       2.06459267E-03  0.990083277    
   1.70833349      0.100000009      0.988364458       2.07888312E-03  0.988366663    
   1.79166675      0.100000009      0.986414969       2.61364388E-03  0.986418426    
   1.87500000      0.100000009      0.984229207       2.63731508E-03  0.984232783    
   1.95833349      0.100000009      0.981764913       3.27408663E-03  0.981770396    
   2.04166698      0.100000009      0.979014277       3.31559032E-03  0.979019880    
   2.12500000      0.100000009      0.975928664       4.07005101E-03  0.975937128    
   2.20833349      0.100000009      0.972502351       4.12190892E-03  0.972511113    
   2.29166675      0.100000009      0.968684316       4.99720592E-03  0.968697190    
   2.37500000      0.100000009      0.964480162       5.03711915E-03  0.964493334    
   2.45833349      0.100000009      0.959859014       5.99997444E-03  0.959877789    
   2.50999999      0.100000009      0.956720710       5.98242041E-03  0.956739366    
   2.52999997      0.100000009      0.955442548       6.22794963E-03  0.955462873    
   2.54999995      0.100000009      0.954143882       6.19771052E-03  0.954164028    
   2.56999993      0.100000009      0.952822804       6.45096926E-03  0.952844620    
   2.58999991      0.100000009      0.951480389       6.40906766E-03  0.951501966    
   2.60999990      0.100000009      0.950115919       6.66743889E-03  0.950139344    
   2.63000011      0.100000009      0.948731065       6.61108363E-03  0.948754072    
   2.65000010      0.100000009      0.947325826       6.87053055E-03  0.947350740    
   2.67000008      0.100000009      0.945902109       6.79878891E-03  0.945926547    
   2.69000006      0.100000009      0.944459796       7.05716247E-03  0.944486201    
   2.71000004      0.100000009      0.943001032       6.97004655E-03  0.943026781    
   2.73000002      0.100000009      0.941526175       7.22526340E-03  0.941553891    
   2.75000000      0.100000009      0.940037012       7.12191686E-03  0.940063953    
   2.76999998      0.100000009      0.938534617       7.37122446E-03  0.938563585    