 TITLE= "TESTPLOT" 
 VARIABLES="x","y","fx","fy","magf" 
 ZONE T="1", I=          51 , J=          51
   0.00000000       0.00000000       0.00000000       0.00000000       0.00000000    
   0.00000000       9.99999978E-03   0.00000000       0.00000000       0.00000000    
   0.00000000       2.99999993E-02   0.00000000       0.00000000       0.00000000    
   0.00000000       4.99999970E-02   0.00000000       0.00000000       0.00000000    
   0.00000000       7.00000003E-02   0.00000000       0.00000000       0.00000000    
   0.00000000       8.99999961E-02   0.00000000       0.00000000       0.00000000    
   0.00000000      0.109999999       0.00000000       0.00000000       0.00000000    
   0.00000000      0.129999995       0.00000000       0.00000000       0.00000000    
   0.00000000      0.150000006       0.00000000       0.00000000       0.00000000    
   0.00000000      0.169999987       0.00000000       0.00000000       0.00000000    
   0.00000000      0.189999998       0.00000000       0.00000000       0.00000000    
   0.00000000      0.209999993       0.00000000       0.00000000       0.00000000    
   0.00000000      0.229999989       0.00000000       0.00000000       0.00000000    
   0.00000000      0.250000000       0.00000000       0.00000000       0.00000000    
   0.00000000      0.269999981       0.00000000       0.00000000       0.00000000    
   0.00000000      0.289999992       0.00000000       0.00000000       0.00000000    
   0.00000000      0.310000002       0.00000000       0.00000000       0.00000000    
   0.00000000      0.329999983       0.00000000       0.00000000       0.00000000    
   0.00000000      0.349999994       0.00000000       0.00000000       0.00000000    
   0.00000000      0.370000005       0.00000000       0.00000000       0.00000000    
   0.00000000      0.389999986       0.00000000       0.00000000       0.00000000    
   0.00000000      0.409999967       0.00000000       0.00000000       0.00000000    
   0.00000000      0.430000007       0.00000000       0.00000000       0.00000000    
   0.00000000      0.449999988       0.00000000       0.00000000       0.00000000    
   0.00000000      0.469999969       0.00000000       0.00000000       0.00000000    
   0.00000000      0.490000010       0.00000000       0.00000000       0.00000000    
   0.00000000      0.509999990       0.00000000       0.00000000       0.00000000    
   0.00000000      0.529999971       0.00000000       0.00000000       0.00000000    
   0.00000000      0.549999952       0.00000000       0.00000000       0.00000000    
   0.00000000      0.569999993       0.00000000       0.00000000       0.00000000    
   0.00000000      0.589999974       0.00000000       0.00000000       0.00000000    
   0.00000000      0.610000014       0.00000000       0.00000000       0.00000000    
   0.00000000      0.629999995       0.00000000       0.00000000       0.00000000    
   0.00000000      0.649999976       0.00000000       0.00000000       0.00000000    
   0.00000000      0.669999957       0.00000000       0.00000000       0.00000000    
   0.00000000      0.689999998       0.00000000       0.00000000       0.00000000    
   0.00000000      0.709999979       0.00000000       0.00000000       0.00000000    
   0.00000000      0.730000019       0.00000000       0.00000000       0.00000000    
   0.00000000      0.750000000       0.00000000       0.00000000       0.00000000    
   0.00000000      0.769999981       0.00000000       0.00000000       0.00000000    
   0.00000000      0.789999962       0.00000000       0.00000000       0.00000000    
   0.00000000      0.809999943       0.00000000       0.00000000       0.00000000    
   0.00000000      0.829999983       0.00000000       0.00000000       0.00000000    
   0.00000000      0.849999964       0.00000000       0.00000000       0.00000000    
   0.00000000      0.870000005       0.00000000       0.00000000       0.00000000    
   0.00000000      0.889999986       0.00000000       0.00000000       0.00000000    
   0.00000000      0.909999967       0.00000000       0.00000000       0.00000000    
   0.00000000      0.929999948       0.00000000       0.00000000       0.00000000    
   0.00000000      0.949999988       0.00000000       0.00000000       0.00000000    
   0.00000000      0.969999969       0.00000000       0.00000000       0.00000000    
   0.00000000      0.990000010       0.00000000       0.00000000       0.00000000    
   0.00000000       1.00000000       1.00000000       0.00000000       1.00000000    
   9.99999978E-03   0.00000000       0.00000000       0.00000000       0.00000000    
   9.99999978E-03   9.99999978E-03   2.90803873E-05  -2.94000729E-05   4.13525486E-05
   9.99999978E-03   2.99999993E-02  -2.28398167E-05  -3.62872815E-05   4.28768471E-05
   9.99999978E-03   4.99999970E-02  -1.05381660E-04   9.12790420E-05   1.39417214E-04
   9.99999978E-03   7.00000003E-02  -1.91504354E-04   3.87506036E-04   4.32243978E-04
   9.99999978E-03   8.99999961E-02  -2.72773905E-04   8.51119170E-04   8.93761404E-04
   9.99999978E-03  0.109999999      -3.46638466E-04   1.46985869E-03   1.51017972E-03
   9.99999978E-03  0.129999995      -4.12242574E-04   2.22805841E-03   2.26587476E-03
   9.99999978E-03  0.150000006      -4.69207036E-04   3.10881855E-03   3.14402720E-03
   9.99999978E-03  0.169999987      -5.17332985E-04   4.09466214E-03   4.12721373E-03
   9.99999978E-03  0.189999998      -5.56534971E-04   5.16782887E-03   5.19770989E-03
   9.99999978E-03  0.209999993      -5.86815237E-04   6.31047506E-03   6.33770041E-03
   9.99999978E-03  0.229999989      -6.08243223E-04   7.50483107E-03   7.52943894E-03
   9.99999978E-03  0.250000000      -6.20927662E-04   8.73330515E-03   8.75535142E-03
   9.99999978E-03  0.269999981      -6.24996028E-04   9.97854210E-03   9.99809615E-03
   9.99999978E-03  0.289999992      -6.20591221E-04   1.12234578E-02   1.12406025E-02
   9.99999978E-03  0.310000002      -6.07878785E-04   1.24512771E-02   1.24661066E-02
   9.99999978E-03  0.329999983      -5.87068789E-04   1.36456005E-02   1.36582227E-02
   9.99999978E-03  0.349999994      -5.58460830E-04   1.47905359E-02   1.48010748E-02
   9.99999978E-03  0.370000005      -5.22464456E-04   1.58709008E-02   1.58794988E-02
   9.99999978E-03  0.389999986      -4.79650538E-04   1.68724936E-02   1.68793108E-02
   9.99999978E-03  0.409999967      -4.30776156E-04   1.77824385E-02   1.77876558E-02
   9.99999978E-03  0.430000007      -3.76793585E-04   1.85895674E-02   1.85933858E-02
   9.99999978E-03  0.449999988      -3.18869308E-04   1.92848351E-02   1.92874707E-02
   9.99999978E-03  0.469999969      -2.58338987E-04   1.98616888E-02   1.98633689E-02
   9.99999978E-03  0.490000010      -1.96731693E-04   2.03164443E-02   2.03173961E-02
   9.99999978E-03  0.509999990      -1.35726979E-04   2.06486285E-02   2.06490736E-02
   9.99999978E-03  0.529999971      -7.72214553E-05   2.08613351E-02   2.08614785E-02
   9.99999978E-03  0.549999952      -2.34332438E-05   2.09617801E-02   2.09617931E-02
   9.99999978E-03  0.569999993       2.33118280E-05   2.09617149E-02   2.09617279E-02
   9.99999978E-03  0.589999974       6.57846904E-05   2.08724532E-02   2.08725575E-02
   9.99999978E-03  0.610000014       1.01212696E-04   2.07053032E-02   2.07055509E-02
   9.99999978E-03  0.629999995       1.27255538E-04   2.04766877E-02   2.04770826E-02
   9.99999978E-03  0.649999976       1.41959114E-04   2.02073306E-02   2.02078279E-02
   9.99999978E-03  0.669999957       1.43126512E-04   1.99221000E-02   1.99226141E-02
   9.99999978E-03  0.689999998       1.27946609E-04   1.96508728E-02   1.96512900E-02
   9.99999978E-03  0.709999979       9.26412322E-05   1.94301158E-02   1.94303356E-02
   9.99999978E-03  0.730000019       3.22207634E-05   1.93050671E-02   1.93050932E-02
   9.99999978E-03  0.750000000      -6.10641364E-05   1.93337034E-02   1.93338003E-02
   9.99999978E-03  0.769999981      -1.96477355E-04   1.95910148E-02   1.95920002E-02
   9.99999978E-03  0.789999962      -3.91982525E-04   2.01792177E-02   2.01830249E-02
   9.99999978E-03  0.809999943      -6.78801967E-04   2.12497134E-02   2.12605521E-02
   9.99999978E-03  0.829999983      -1.11076492E-03   2.30389554E-02   2.30657160E-02
   9.99999978E-03  0.849999964      -1.78147934E-03   2.59308349E-02   2.59919576E-02
   9.99999978E-03  0.870000005      -2.85312068E-03   3.05650216E-02   3.06978971E-02
   9.99999978E-03  0.889999986      -4.59785247E-03   3.80155295E-02   3.82925682E-02
   9.99999978E-03  0.909999967      -7.43257999E-03   5.00454605E-02   5.05943820E-02
   9.99999978E-03  0.929999948      -1.18222935E-02   6.92997947E-02   7.03009889E-02
   9.99999978E-03  0.949999988      -1.73156001E-02   9.84371379E-02   9.99484882E-02
   9.99999978E-03  0.969999969      -1.54125998E-02  0.131164789      0.132067218    
   9.99999978E-03  0.990000010       7.32884333E-02   7.32885599E-02  0.103645585    
   9.99999978E-03   1.00000000       1.00000000       0.00000000       1.00000000    
   2.99999993E-02   0.00000000       0.00000000       0.00000000       0.00000000    
   2.99999993E-02   9.99999978E-03   3.78837649E-05   1.99535880E-05   4.28173480E-05
   2.99999993E-02   2.99999993E-02  -1.98972935E-04   1.92869658E-04   2.77108164E-04
   2.99999993E-02   4.99999970E-02  -5.36806998E-04   6.71543879E-04   8.59728432E-04
   2.99999993E-02   7.00000003E-02  -8.90785304E-04   1.50469772E-03   1.74860330E-03
   2.99999993E-02   8.99999961E-02  -1.22821890E-03   2.69447314E-03   2.96120043E-03
   2.99999993E-02  0.109999999      -1.53649074E-03   4.21967823E-03   4.49071173E-03
   2.99999993E-02  0.129999995      -1.81051681E-03   6.04823697E-03   6.31340966E-03
   2.99999993E-02  0.150000006      -2.04817066E-03   8.14333092E-03   8.39695428E-03
   2.99999993E-02  0.169999987      -2.24868022E-03   1.04664005E-02   1.07052373E-02
   2.99999993E-02  0.189999998      -2.41200253E-03   1.29786413E-02   1.32008670E-02
   2.99999993E-02  0.209999993      -2.53853342E-03   1.56417694E-02   1.58464219E-02
   2.99999993E-02  0.229999989      -2.62890500E-03   1.84183866E-02   1.86050553E-02
   2.99999993E-02  0.250000000      -2.68382975E-03   2.12720782E-02   2.14407146E-02
   2.99999993E-02  0.269999981      -2.70401314E-03   2.41673850E-02   2.43181866E-02
   2.99999993E-02  0.289999992      -2.69014528E-03   2.70696953E-02   2.72030383E-02
   2.99999993E-02  0.310000002      -2.64291931E-03   2.99451668E-02   3.00615709E-02
   2.99999993E-02  0.329999983      -2.56313058E-03   3.27606946E-02   3.28608081E-02
   2.99999993E-02  0.349999994      -2.45183753E-03   3.54840122E-02   3.55686173E-02
   2.99999993E-02  0.370000005      -2.31049070E-03   3.80839258E-02   3.81539501E-02
   2.99999993E-02  0.389999986      -2.14109523E-03   4.05307598E-02   4.05872762E-02
   2.99999993E-02  0.409999967      -1.94634474E-03   4.27968651E-02   4.28411029E-02
   2.99999993E-02  0.430000007      -1.72969443E-03   4.48573306E-02   4.48906682E-02
   2.99999993E-02  0.449999988      -1.49541209E-03   4.66907136E-02   4.67146561E-02
   2.99999993E-02  0.469999969      -1.24854245E-03   4.82799001E-02   4.82960418E-02
   2.99999993E-02  0.490000010      -9.94861242E-04   4.96128500E-02   4.96228226E-02
   2.99999993E-02  0.509999990      -7.40797142E-04   5.06833158E-02   5.06887287E-02
   2.99999993E-02  0.529999971      -4.93412139E-04   5.14913872E-02   5.14937527E-02
   2.99999993E-02  0.549999952      -2.60448403E-04   5.20437285E-02   5.20443805E-02
   2.99999993E-02  0.569999993      -5.00538808E-05   5.23538031E-02   5.23538291E-02
   2.99999993E-02  0.589999974       1.33514390E-04   5.24483696E-02   5.24485409E-02
   2.99999993E-02  0.610000014       2.89802905E-04   5.23588955E-02   5.23596965E-02
   2.99999993E-02  0.629999995       4.09566303E-04   5.21163158E-02   5.21179251E-02
   2.99999993E-02  0.649999976       4.84096527E-04   5.17609343E-02   5.17631993E-02
   2.99999993E-02  0.669999957       5.03735384E-04   5.13431206E-02   5.13455905E-02
   2.99999993E-02  0.689999998       4.56483278E-04   5.09248897E-02   5.09269349E-02
   2.99999993E-02  0.709999979       3.26520181E-04   5.05828857E-02   5.05839400E-02
   2.99999993E-02  0.730000019       9.29200833E-05   5.04129753E-02   5.04130609E-02
   2.99999993E-02  0.750000000      -2.69820943E-04   5.05319722E-02   5.05326949E-02
   2.99999993E-02  0.769999981      -7.96281907E-04   5.10827526E-02   5.10889590E-02
   2.99999993E-02  0.789999962      -1.54703064E-03   5.22488765E-02   5.22717759E-02
   2.99999993E-02  0.809999943      -2.62040831E-03   5.42744398E-02   5.43376617E-02
   2.99999993E-02  0.829999983      -4.17429255E-03   5.74896708E-02   5.76410182E-02
   2.99999993E-02  0.849999964      -6.46116165E-03   6.23402521E-02   6.26741871E-02
   2.99999993E-02  0.870000005      -9.87559278E-03   6.94073737E-02   7.01064244E-02
   2.99999993E-02  0.889999986      -1.49918292E-02   7.93723762E-02   8.07757974E-02
   2.99999993E-02  0.909999967      -2.24789325E-02   9.27817523E-02   9.54659954E-02
   2.99999993E-02  0.929999948      -3.24094668E-02  0.109159842      0.113869421    
   2.99999993E-02  0.949999988      -4.07340154E-02  0.124026954      0.130544797    
   2.99999993E-02  0.969999969      -2.04939619E-02  0.119797982      0.121538304    
   2.99999993E-02  0.990000010      0.201309979       5.47332391E-02  0.208617911    
   2.99999993E-02   1.00000000       1.00000000       0.00000000       1.00000000    
   4.99999970E-02   0.00000000       0.00000000       0.00000000       0.00000000    
   4.99999970E-02   9.99999978E-03  -6.92909962E-05   8.65755646E-05   1.10889901E-04
   4.99999970E-02   2.99999993E-02  -6.46866276E-04   4.67421603E-04   7.98072026E-04
   4.99999970E-02   4.99999970E-02  -1.38737960E-03   1.28589023E-03   1.89164898E-03
   4.99999970E-02   7.00000003E-02  -2.15701922E-03   2.56821280E-03   3.35387071E-03
   4.99999970E-02   8.99999961E-02  -2.89334822E-03   4.30845935E-03   5.18982532E-03
   4.99999970E-02  0.109999999      -3.56778037E-03   6.47831708E-03   7.39578623E-03
   4.99999970E-02  0.129999995      -4.16749995E-03   9.03666019E-03   9.95134655E-03
   4.99999970E-02  0.150000006      -4.68721520E-03   1.19362082E-02   1.28235351E-02
   4.99999970E-02  0.169999987      -5.12546021E-03   1.51275657E-02   1.59722753E-02
   4.99999970E-02  0.189999998      -5.48279146E-03   1.85614862E-02   1.93543211E-02
   4.99999970E-02  0.209999993      -5.76081686E-03   2.21900232E-02   2.29256209E-02
   4.99999970E-02  0.229999989      -5.96155878E-03   2.59669386E-02   2.66424865E-02
   4.99999970E-02  0.250000000      -6.08707406E-03   2.98477523E-02   3.04621216E-02
   4.99999970E-02  0.269999981      -6.13922905E-03   3.37895341E-02   3.43427248E-02
   4.99999970E-02  0.289999992      -6.11964520E-03   3.77506018E-02   3.82434055E-02
   4.99999970E-02  0.310000002      -6.02978421E-03   4.16901968E-02   4.21239920E-02
   4.99999970E-02  0.329999983      -5.87118324E-03   4.55683470E-02   4.59450223E-02
   4.99999970E-02  0.349999994      -5.64571377E-03   4.93457802E-02   4.96676974E-02
   4.99999970E-02  0.370000005      -5.35596441E-03   5.29841036E-02   5.32541238E-02
   4.99999970E-02  0.389999986      -5.00552962E-03   5.64461425E-02   5.66676483E-02
   4.99999970E-02  0.409999967      -4.59934957E-03   5.96965253E-02   5.98734431E-02
   4.99999970E-02  0.430000007      -4.14389744E-03   6.27024025E-02   6.28391802E-02
   4.99999970E-02  0.449999988      -3.64734791E-03   6.54343814E-02   6.55359551E-02
   4.99999970E-02  0.469999969      -3.11953900E-03   6.78674430E-02   6.79391026E-02
   4.99999970E-02  0.490000010      -2.57192831E-03   6.99819401E-02   7.00291842E-02
   4.99999970E-02  0.509999990      -2.01737788E-03   7.17645809E-02   7.17929304E-02
   4.99999970E-02  0.529999971      -1.46997301E-03   7.32091814E-02   7.32239410E-02
   4.99999970E-02  0.549999952      -9.44752072E-04   7.43172914E-02   7.43232965E-02
   4.99999970E-02  0.569999993      -4.57484100E-04   7.50985891E-02   7.50999823E-02
   4.99999970E-02  0.589999974      -2.58775908E-05   7.55705237E-02   7.55705237E-02
   4.99999970E-02  0.610000014       3.39969440E-04   7.57689178E-02   7.57696778E-02
   4.99999970E-02  0.629999995       6.31005154E-04   7.57395998E-02   7.57422298E-02
   4.99999970E-02  0.649999976       8.27768468E-04   7.55295828E-02   7.55341128E-02
   4.99999970E-02  0.669999957       9.09163617E-04   7.51979947E-02   7.52034858E-02
   4.99999970E-02  0.689999998       8.50013632E-04   7.48169571E-02   7.48217851E-02
   4.99999970E-02  0.709999979       6.18192251E-04   7.44734034E-02   7.44759664E-02
   4.99999970E-02  0.730000019       1.72420230E-04   7.42717460E-02   7.42719471E-02
   4.99999970E-02  0.750000000      -5.33045968E-04   7.43360370E-02   7.43379518E-02
   4.99999970E-02  0.769999981      -1.56103354E-03   7.48127401E-02   7.48290271E-02
   4.99999970E-02  0.789999962      -3.01177707E-03   7.58755654E-02   7.59353116E-02
   4.99999970E-02  0.809999943      -5.03574591E-03   7.77294636E-02   7.78924152E-02
   4.99999970E-02  0.829999983      -7.85503536E-03   8.06096196E-02   8.09914321E-02
   4.99999970E-02  0.849999964      -1.17887799E-02   8.47666189E-02   8.55824426E-02
   4.99999970E-02  0.870000005      -1.72650944E-02   9.04157311E-02   9.20493752E-02
   4.99999970E-02  0.889999986      -2.47520469E-02   9.75994617E-02  0.100689217    
   4.99999970E-02  0.909999967      -3.43705416E-02  0.105840847      0.111281708    
   4.99999970E-02  0.929999948      -4.43424918E-02  0.113286242      0.121655367    
   4.99999970E-02  0.949999988      -4.49788943E-02  0.114595838      0.123106889    
   4.99999970E-02  0.969999969       6.65919855E-03   9.59153771E-02   9.61462706E-02
   4.99999970E-02  0.990000010      0.295589536       3.95465828E-02  0.298223257    
   4.99999970E-02   1.00000000       1.00000000       0.00000000       1.00000000    
   7.00000003E-02   0.00000000       0.00000000       0.00000000       0.00000000    
   7.00000003E-02   9.99999978E-03  -2.97296123E-04   1.40787379E-04   3.28946917E-04
   7.00000003E-02   2.99999993E-02  -1.35461451E-03   6.94395683E-04   1.52222393E-03
   7.00000003E-02   4.99999970E-02  -2.59626308E-03   1.79124251E-03   3.15422448E-03
   7.00000003E-02   7.00000003E-02  -3.86406668E-03   3.42352781E-03   5.16251428E-03
   7.00000003E-02   8.99999961E-02  -5.07309660E-03   5.56874368E-03   7.53307482E-03
   7.00000003E-02  0.109999999      -6.17982913E-03   8.18933547E-03   1.02594104E-02
   7.00000003E-02  0.129999995      -7.16340449E-03   1.12375822E-02   1.33265750E-02
   7.00000003E-02  0.150000006      -8.01530853E-03   1.46606546E-02   1.67086795E-02
   7.00000003E-02  0.169999987      -8.73380061E-03   1.84043441E-02   2.03715283E-02
   7.00000003E-02  0.189999998      -9.32076667E-03   2.24153437E-02   2.42760032E-02
   7.00000003E-02  0.209999993      -9.77981929E-03   2.66423896E-02   2.83806585E-02
   7.00000003E-02  0.229999989      -1.01151094E-02   3.10366340E-02   3.26433480E-02
   7.00000003E-02  0.250000000      -1.03306100E-02   3.55515331E-02   3.70220616E-02
   7.00000003E-02  0.269999981      -1.04297120E-02   4.01424170E-02   4.14752066E-02
   7.00000003E-02  0.289999992      -1.04151163E-02   4.47659865E-02   4.59615961E-02
   7.00000003E-02  0.310000002      -1.02890227E-02   4.93798256E-02   5.04403710E-02
   7.00000003E-02  0.329999983      -1.00534977E-02   5.39420098E-02   5.48708774E-02
   7.00000003E-02  0.349999994      -9.71092843E-03   5.84109500E-02   5.92126772E-02
   7.00000003E-02  0.370000005      -9.26462375E-03   6.27454147E-02   6.34257048E-02
   7.00000003E-02  0.389999986      -8.71935673E-03   6.69048578E-02   6.74706399E-02
   7.00000003E-02  0.409999967      -8.08189437E-03   7.08499253E-02   7.13093877E-02
   7.00000003E-02  0.430000007      -7.36139901E-03   7.45432526E-02   7.49058574E-02
   7.00000003E-02  0.449999988      -6.56970963E-03   7.79504031E-02   7.82267600E-02
   7.00000003E-02  0.469999969      -5.72134368E-03   8.10408592E-02   8.12425613E-02
   7.00000003E-02  0.490000010      -4.83347569E-03   8.37891251E-02   8.39284211E-02
   7.00000003E-02  0.509999990      -3.92564526E-03   8.61757919E-02   8.62651616E-02
   7.00000003E-02  0.529999971      -3.01943440E-03   8.81884843E-02   8.82401615E-02
   7.00000003E-02  0.549999952      -2.13800045E-03   8.98227096E-02   8.98481533E-02
   7.00000003E-02  0.569999993      -1.30570296E-03   9.10825357E-02   9.10919011E-02
   7.00000003E-02  0.589999974      -5.48331067E-04   9.19809714E-02   9.19826105E-02
   7.00000003E-02  0.610000014       1.05081221E-04   9.25396383E-02   9.25396979E-02
   7.00000003E-02  0.629999995       6.35830220E-04   9.27987471E-02   9.28009227E-02
   7.00000003E-02  0.649999976       1.01994560E-03   9.28114951E-02   9.28170979E-02
   7.00000003E-02  0.669999957       1.22464006E-03   9.26351398E-02   9.26432312E-02
   7.00000003E-02  0.689999998       1.21242530E-03   9.23379883E-02   9.23459455E-02
   7.00000003E-02  0.709999979       9.37661098E-04   9.19993073E-02   9.20040831E-02
   7.00000003E-02  0.730000019       3.44049069E-04   9.17094722E-02   9.17101130E-02
   7.00000003E-02  0.750000000      -6.33891381E-04   9.15739536E-02   9.15761441E-02
   7.00000003E-02  0.769999981      -2.07499601E-03   9.17115435E-02   9.17350128E-02
   7.00000003E-02  0.789999962      -4.09864075E-03   9.22489688E-02   9.23399776E-02
   7.00000003E-02  0.809999943      -6.86973613E-03   9.33152735E-02   9.35678035E-02
   7.00000003E-02  0.829999983      -1.06113646E-02   9.50246900E-02   9.56153348E-02
   7.00000003E-02  0.849999964      -1.56082353E-02   9.74426493E-02   9.86847878E-02
   7.00000003E-02  0.870000005      -2.21692268E-02  0.100516178      0.102931902    
   7.00000003E-02  0.889999986      -3.04471664E-02  0.103930637      0.108298697    
   7.00000003E-02  0.909999967      -3.97962108E-02  0.106808901      0.113981925    
   7.00000003E-02  0.929999948      -4.66271639E-02  0.107072622      0.116784580    
   7.00000003E-02  0.949999988      -3.70837040E-02  0.100151211      0.106796376    
   7.00000003E-02  0.969999969       4.03642133E-02   7.72302002E-02   8.71422589E-02
   7.00000003E-02  0.990000010      0.365309209       3.01733930E-02  0.366553217    
   7.00000003E-02   1.00000000       1.00000000       0.00000000       1.00000000    
   8.99999961E-02   0.00000000       0.00000000       0.00000000       0.00000000    
   8.99999961E-02   9.99999978E-03  -6.16538746E-04   1.77818336E-04   6.41669205E-04
   8.99999961E-02   2.99999993E-02  -2.26866058E-03   8.56210303E-04   2.42485409E-03
   8.99999961E-02   4.99999970E-02  -4.08469047E-03   2.16053124E-03   4.62088641E-03
   8.99999961E-02   7.00000003E-02  -5.90103865E-03   4.05233307E-03   7.15846755E-03
   8.99999961E-02   8.99999961E-02  -7.62062194E-03   6.49029203E-03   1.00098830E-02
   8.99999961E-02  0.109999999      -9.18989629E-03   9.42595769E-03   1.31644541E-02
   8.99999961E-02  0.129999995      -1.05822887E-02   1.28053129E-02   1.66120715E-02
   8.99999961E-02  0.150000006      -1.17874099E-02   1.65718608E-02   2.03364100E-02
   8.99999961E-02  0.169999987      -1.28042717E-02   2.06693709E-02   2.43140347E-02
   8.99999961E-02  0.189999998      -1.36369560E-02   2.50436515E-02   2.85158027E-02
   8.99999961E-02  0.209999993      -1.42918173E-02   2.96434108E-02   3.29087786E-02
   8.99999961E-02  0.229999989      -1.47756990E-02   3.44203785E-02   3.74577604E-02
   8.99999961E-02  0.250000000      -1.50948195E-02   3.93289253E-02   4.21262160E-02
   8.99999961E-02  0.269999981      -1.52542032E-02   4.43254113E-02   4.68767844E-02
   8.99999961E-02  0.289999992      -1.52575476E-02   4.93674725E-02   5.16714640E-02
   8.99999961E-02  0.310000002      -1.51074780E-02   5.44132777E-02   5.64715937E-02
   8.99999961E-02  0.329999983      -1.48061328E-02   5.94209880E-02   6.12378605E-02
   8.99999961E-02  0.349999994      -1.43558457E-02   6.43484816E-02   6.59304038E-02
   8.99999961E-02  0.370000005      -1.37600228E-02   6.91532791E-02   7.05089644E-02
   8.99999961E-02  0.389999986      -1.30239706E-02   7.37928897E-02   7.49333948E-02
   8.99999961E-02  0.409999967      -1.21556837E-02   7.82253519E-02   7.91641772E-02
   8.99999961E-02  0.430000007      -1.11664683E-02   8.24100897E-02   8.31631720E-02
   8.99999961E-02  0.449999988      -1.00712925E-02   8.63089114E-02   8.68945271E-02
   8.99999961E-02  0.469999969      -8.88899900E-03   8.98870900E-02   9.03255418E-02
   8.99999961E-02  0.490000010      -7.64213409E-03   9.31145996E-02   9.34276804E-02
   8.99999961E-02  0.509999990      -6.35668915E-03   9.59671885E-02   9.61774811E-02
   8.99999961E-02  0.529999971      -5.06161992E-03   9.84273404E-02   9.85573977E-02
   8.99999961E-02  0.549999952      -3.78828635E-03  0.100485265      0.100556649    
   8.99999961E-02  0.569999993      -2.56988266E-03  0.102139607      0.102171928    
   8.99999961E-02  0.589999974      -1.44114916E-03  0.103397913      0.103407957    
   8.99999961E-02  0.610000014      -4.39362630E-04  0.104276285      0.104277208    
   8.99999961E-02  0.629999995       3.95795621E-04  0.104801416      0.104802161    
   8.99999961E-02  0.649999976       1.03359635E-03  0.105014808      0.105019897    
   8.99999961E-02  0.669999957       1.43301825E-03  0.104968876      0.104978658    
   8.99999961E-02  0.689999998       1.54770748E-03  0.104722083      0.104733519    
   8.99999961E-02  0.709999979       1.32357609E-03  0.104339212      0.104347609    
   8.99999961E-02  0.730000019       6.96380739E-04  0.103890419      0.103892758    
   8.99999961E-02  0.750000000      -4.12811438E-04  0.103452072      0.103452899    
   8.99999961E-02  0.769999981      -2.08906387E-03  0.103106931      0.103128091    
   8.99999961E-02  0.789999962      -4.44961898E-03  0.102933943      0.103030071    
   8.99999961E-02  0.809999943      -7.64551107E-03  0.102993704      0.103277087    
   8.99999961E-02  0.829999983      -1.18617844E-02  0.103309676      0.103988416    
   8.99999961E-02  0.849999964      -1.72999315E-02  0.103832945      0.105264284    
   8.99999961E-02  0.870000005      -2.40989234E-02  0.104379788      0.107125618    
   8.99999961E-02  0.889999986      -3.20695415E-02  0.104516253      0.109325677    
   8.99999961E-02  0.909999967      -3.98680717E-02  0.103330955      0.110755362    
   8.99999961E-02  0.929999948      -4.24625352E-02   9.89731178E-02  0.107697465    
   8.99999961E-02  0.949999988      -2.31718235E-02   8.78166035E-02   9.08222944E-02
   8.99999961E-02  0.969999969       7.31037632E-02   6.40847832E-02   9.72163528E-02
   8.99999961E-02  0.990000010      0.419596255       2.41139792E-02  0.420288593    
   8.99999961E-02   1.00000000       1.00000000       0.00000000       1.00000000    
  0.109999999       0.00000000       0.00000000       0.00000000       0.00000000    
  0.109999999       9.99999978E-03  -9.96269519E-04   2.01282339E-04   1.01639924E-03
  0.109999999       2.99999993E-02  -3.33181047E-03   9.64496401E-04   3.46860406E-03
  0.109999999       4.99999970E-02  -5.77963702E-03   2.41697999E-03   6.26466284E-03
  0.109999999       7.00000003E-02  -8.17987882E-03   4.49766591E-03   9.33484919E-03
  0.109999999       8.99999961E-02  -1.04315383E-02   7.14815315E-03   1.26456749E-02
  0.109999999      0.109999999      -1.24766938E-02   1.03088785E-02   1.61845870E-02
  0.109999999      0.129999995      -1.42866429E-02   1.39193386E-02   1.99463312E-02
  0.109999999      0.150000006      -1.58514138E-02   1.79198012E-02   2.39246022E-02
  0.109999999      0.169999987      -1.71723254E-02   2.22529955E-02   2.81084441E-02
  0.109999999      0.189999998      -1.82567574E-02   2.68652104E-02   3.24815139E-02
  0.109999999      0.209999993      -1.91145875E-02   3.17066647E-02   3.70226949E-02
  0.109999999      0.229999989      -1.97557993E-02   3.67312133E-02   4.17069979E-02
  0.109999999      0.250000000      -2.01890245E-02   4.18956429E-02   4.65063602E-02
  0.109999999      0.269999981      -2.04208083E-02   4.71586660E-02   5.13901673E-02
  0.109999999      0.289999992      -2.04554833E-02   5.24798855E-02   5.63255288E-02
  0.109999999      0.310000002      -2.02955548E-02   5.78188822E-02   6.12775050E-02
  0.109999999      0.329999983      -1.99424960E-02   6.31344542E-02   6.62092343E-02
  0.109999999      0.349999994      -1.93977617E-02   6.83841705E-02   7.10821152E-02
  0.109999999      0.370000005      -1.86640508E-02   7.35243261E-02   7.58562684E-02
  0.109999999      0.389999986      -1.77464504E-02   7.85103142E-02   8.04910287E-02
  0.109999999      0.409999967      -1.66535173E-02   8.32973570E-02   8.49457979E-02
  0.109999999      0.430000007      -1.53981503E-02   8.78414065E-02   8.91808048E-02
  0.109999999      0.449999988      -1.39980745E-02   9.21004340E-02   9.31581259E-02
  0.109999999      0.469999969      -1.24761444E-02   9.60356444E-02   9.68426466E-02
  0.109999999      0.490000010      -1.08601283E-02   9.96128172E-02  0.100203075    
  0.109999999      0.509999990      -9.18232463E-03  0.102803491      0.103212759    
  0.109999999      0.529999971      -7.47894309E-03  0.105585992      0.105850533    
  0.109999999      0.549999952      -5.78940520E-03  0.107946247      0.108101383    
  0.109999999      0.569999993      -4.15553804E-03  0.109878466      0.109957017    
  0.109999999      0.589999974      -2.62099179E-03  0.111385465      0.111416295    
  0.109999999      0.610000014      -1.23128470E-03  0.112478688      0.112485431    
  0.109999999      0.629999995      -3.55905941E-05  0.113176689      0.113176689    
  0.109999999      0.649999976       9.18881386E-04  0.113509193      0.113512911    
  0.109999999      0.669999957       1.58593245E-03  0.113516711      0.113527790    