 TITLE= "TESTPLOT" 
 VARIABLES="x","y","fx","fy","magf" 
 ZONE T="1", I=          51 , J=          51
   0.00000000       0.00000000       0.00000000       0.00000000       0.00000000    
   0.00000000       9.99999978E-03   0.00000000       0.00000000       0.00000000    
   0.00000000       2.99999993E-02   0.00000000       0.00000000       0.00000000    
   0.00000000       4.99999970E-02   0.00000000       0.00000000       0.00000000    
   0.00000000       7.00000003E-02   0.00000000       0.00000000       0.00000000    
   0.00000000       8.99999961E-02   0.00000000       0.00000000       0.00000000    
   0.00000000      0.109999999       0.00000000       0.00000000       0.00000000    
   0.00000000      0.129999995       0.00000000       0.00000000       0.00000000    
   0.00000000      0.150000006       0.00000000       0.00000000       0.00000000    
   0.00000000      0.169999987       0.00000000       0.00000000       0.00000000    
   0.00000000      0.189999998       0.00000000       0.00000000       0.00000000    
   0.00000000      0.209999993       0.00000000       0.00000000       0.00000000    
   0.00000000      0.229999989       0.00000000       0.00000000       0.00000000    
   0.00000000      0.250000000       0.00000000       0.00000000       0.00000000    
   0.00000000      0.269999981       0.00000000       0.00000000       0.00000000    
   0.00000000      0.289999992       0.00000000       0.00000000       0.00000000    
   0.00000000      0.310000002       0.00000000       0.00000000       0.00000000    
   0.00000000      0.329999983       0.00000000       0.00000000       0.00000000    
   0.00000000      0.349999994       0.00000000       0.00000000       0.00000000    
   0.00000000      0.370000005       0.00000000       0.00000000       0.00000000    
   0.00000000      0.389999986       0.00000000       0.00000000       0.00000000    
   0.00000000      0.409999967       0.00000000       0.00000000       0.00000000    
   0.00000000      0.430000007       0.00000000       0.00000000       0.00000000    
   0.00000000      0.449999988       0.00000000       0.00000000       0.00000000    
   0.00000000      0.469999969       0.00000000       0.00000000       0.00000000    
   0.00000000      0.490000010       0.00000000       0.00000000       0.00000000    
   0.00000000      0.509999990       0.00000000       0.00000000       0.00000000    
   0.00000000      0.529999971       0.00000000       0.00000000       0.00000000    
   0.00000000      0.549999952       0.00000000       0.00000000       0.00000000    
   0.00000000      0.569999993       0.00000000       0.00000000       0.00000000    
   0.00000000      0.589999974       0.00000000       0.00000000       0.00000000    
   0.00000000      0.610000014       0.00000000       0.00000000       0.00000000    
   0.00000000      0.629999995       0.00000000       0.00000000       0.00000000    
   0.00000000      0.649999976       0.00000000       0.00000000       0.00000000    
   0.00000000      0.669999957       0.00000000       0.00000000       0.00000000    
   0.00000000      0.689999998       0.00000000       0.00000000       0.00000000    
   0.00000000      0.709999979       0.00000000       0.00000000       0.00000000    
   0.00000000      0.730000019       0.00000000       0.00000000       0.00000000    
   0.00000000      0.750000000       0.00000000       0.00000000       0.00000000    
   0.00000000      0.769999981       0.00000000       0.00000000       0.00000000    
   0.00000000      0.789999962       0.00000000       0.00000000       0.00000000    
   0.00000000      0.809999943       0.00000000       0.00000000       0.00000000    
   0.00000000      0.829999983       0.00000000       0.00000000       0.00000000    
   0.00000000      0.849999964       0.00000000       0.00000000       0.00000000    
   0.00000000      0.870000005       0.00000000       0.00000000       0.00000000    
   0.00000000      0.889999986       0.00000000       0.00000000       0.00000000    
   0.00000000      0.909999967       0.00000000       0.00000000       0.00000000    
   0.00000000      0.929999948       0.00000000       0.00000000       0.00000000    
   0.00000000      0.949999988       0.00000000       0.00000000       0.00000000    
   0.00000000      0.969999969       0.00000000       0.00000000       0.00000000    
   0.00000000      0.990000010       0.00000000       0.00000000       0.00000000    
   0.00000000       1.00000000       1.00000000       0.00000000       1.00000000    
   9.99999978E-03   0.00000000       0.00000000       0.00000000       0.00000000    
   9.99999978E-03   9.99999978E-03   2.01264584E-06  -3.56282976E-06   4.09200402E-06
   9.99999978E-03   2.99999993E-02  -5.15074134E-05   4.28005187E-05   6.69693763E-05
   9.99999978E-03   4.99999970E-02  -1.07336171E-04   1.98485490E-04   2.25649157E-04
   9.99999978E-03   7.00000003E-02  -1.53267174E-04   4.55937843E-04   4.81009512E-04
   9.99999978E-03   8.99999961E-02  -1.88708553E-04   7.94771069E-04   8.16867163E-04
   9.99999978E-03  0.109999999      -2.15490887E-04   1.19583914E-03   1.21509982E-03
   9.99999978E-03  0.129999995      -2.35523446E-04   1.64373661E-03   1.66052440E-03
   9.99999978E-03  0.150000006      -2.50358251E-04   2.12651980E-03   2.14120653E-03
   9.99999978E-03  0.169999987      -2.61195557E-04   2.63499795E-03   2.64791190E-03
   9.99999978E-03  0.189999998      -2.68953823E-04   3.16209905E-03   3.17351636E-03
   9.99999978E-03  0.209999993      -2.74331454E-04   3.70236859E-03   3.71251814E-03
   9.99999978E-03  0.229999989      -2.77850777E-04   4.25157137E-03   4.26064106E-03
   9.99999978E-03  0.250000000      -2.79884989E-04   4.80636908E-03   4.81451117E-03
   9.99999978E-03  0.269999981      -2.80689914E-04   5.36405202E-03   5.37139131E-03
   9.99999978E-03  0.289999992      -2.80423847E-04   5.92232402E-03   5.92895923E-03
   9.99999978E-03  0.310000002      -2.79172789E-04   6.47913292E-03   6.48514461E-03
   9.99999978E-03  0.329999983      -2.76973500E-04   7.03254901E-03   7.03800097E-03
   9.99999978E-03  0.349999994      -2.73831451E-04   7.58068683E-03   7.58563075E-03
   9.99999978E-03  0.370000005      -2.69741256E-04   8.12165812E-03   8.12613592E-03
   9.99999978E-03  0.389999986      -2.64701986E-04   8.65356717E-03   8.65761470E-03
   9.99999978E-03  0.409999967      -2.58734886E-04   9.17454064E-03   9.17818863E-03
   9.99999978E-03  0.430000007      -2.51902180E-04   9.68278572E-03   9.68606211E-03
   9.99999978E-03  0.449999988      -2.44309398E-04   1.01766801E-02   1.01796119E-02
   9.99999978E-03  0.469999969      -2.36131047E-04   1.06548769E-02   1.06574930E-02
   9.99999978E-03  0.490000010      -2.27611483E-04   1.11164507E-02   1.11187808E-02
   9.99999978E-03  0.509999990      -2.19083478E-04   1.15610501E-02   1.15631260E-02
   9.99999978E-03  0.529999971      -2.10973813E-04   1.19890850E-02   1.19909411E-02
   9.99999978E-03  0.549999952      -2.03832402E-04   1.24019384E-02   1.24036139E-02
   9.99999978E-03  0.569999993      -1.98333233E-04   1.28022209E-02   1.28037566E-02
   9.99999978E-03  0.589999974      -1.95305664E-04   1.31940413E-02   1.31954867E-02
   9.99999978E-03  0.610000014      -1.95776389E-04   1.35833677E-02   1.35847786E-02
   9.99999978E-03  0.629999995      -2.01009374E-04   1.39784571E-02   1.39799025E-02
   9.99999978E-03  0.649999976      -2.12593557E-04   1.43904146E-02   1.43919848E-02
   9.99999978E-03  0.669999957      -2.32561797E-04   1.48339747E-02   1.48357973E-02
   9.99999978E-03  0.689999998      -2.63588299E-04   1.53285731E-02   1.53308390E-02
   9.99999978E-03  0.709999979      -3.09306342E-04   1.58999562E-02   1.59029644E-02
   9.99999978E-03  0.730000019      -3.74806667E-04   1.65825896E-02   1.65868253E-02
   9.99999978E-03  0.750000000      -4.67498787E-04   1.74234435E-02   1.74297132E-02
   9.99999978E-03  0.769999981      -5.98604965E-04   1.84881203E-02   1.84978098E-02
   9.99999978E-03  0.789999962      -7.85741024E-04   1.98710524E-02   1.98865812E-02
   9.99999978E-03  0.809999943      -1.05769769E-03   2.17130855E-02   2.17388310E-02
   9.99999978E-03  0.829999983      -1.46306318E-03   2.42324397E-02   2.42765658E-02
   9.99999978E-03  0.849999964      -2.08593323E-03   2.77800281E-02   2.78582331E-02
   9.99999978E-03  0.870000005      -3.07336752E-03   3.29379104E-02   3.30809839E-02
   9.99999978E-03  0.889999986      -4.67863772E-03   4.06884775E-02   4.09565866E-02
   9.99999978E-03  0.909999967      -7.30822980E-03   5.26738837E-02   5.31784557E-02
   9.99999978E-03  0.929999948      -1.14592100E-02   7.14398474E-02   7.23530650E-02
   9.99999978E-03  0.949999988      -1.68073755E-02   9.97049510E-02  0.101111643    
   9.99999978E-03  0.969999969      -1.50541784E-02  0.131565034      0.132423505    
   9.99999978E-03  0.990000010       7.33088925E-02   7.33092427E-02  0.103674680    
   9.99999978E-03   1.00000000       1.00000000       0.00000000       1.00000000    
   2.99999993E-02   0.00000000       0.00000000       0.00000000       0.00000000    
   2.99999993E-02   9.99999978E-03  -4.57344977E-05   4.81947100E-05   6.64407562E-05
   2.99999993E-02   2.99999993E-02  -2.67012510E-04   2.58790213E-04   3.71844129E-04
   2.99999993E-02   4.99999970E-02  -4.88892954E-04   6.93818787E-04   8.48764321E-04
   2.99999993E-02   7.00000003E-02  -6.75798103E-04   1.33412133E-03   1.49552093E-03
   2.99999993E-02   8.99999961E-02  -8.23844341E-04   2.14663940E-03   2.29929993E-03
   2.99999993E-02  0.109999999      -9.37997655E-04   3.09692137E-03   3.23585561E-03
   2.99999993E-02  0.129999995      -1.02464808E-03   4.15439159E-03   4.27888706E-03
   2.99999993E-02  0.150000006      -1.08957360E-03   5.29372226E-03   5.40468935E-03
   2.99999993E-02  0.169999987      -1.13754626E-03   6.49463106E-03   6.59350026E-03
   2.99999993E-02  0.189999998      -1.17237016E-03   7.74117233E-03   7.82944448E-03
   2.99999993E-02  0.209999993      -1.19700690E-03   9.02093574E-03   9.10000596E-03
   2.99999993E-02  0.229999989      -1.21370563E-03   1.03242770E-02   1.03953732E-02
   2.99999993E-02  0.250000000      -1.22409745E-03   1.16436444E-02   1.17078125E-02
   2.99999993E-02  0.269999981      -1.22931320E-03   1.29729863E-02   1.30311009E-02
   2.99999993E-02  0.289999992      -1.23008038E-03   1.43072866E-02   1.43600674E-02
   2.99999993E-02  0.310000002      -1.22679910E-03   1.56421605E-02   1.56901944E-02
   2.99999993E-02  0.329999983      -1.21966330E-03   1.69735774E-02   1.70173422E-02
   2.99999993E-02  0.349999994      -1.20872643E-03   1.82976685E-02   1.83375478E-02
   2.99999993E-02  0.370000005      -1.19398232E-03   1.96106099E-02   1.96469240E-02
   2.99999993E-02  0.389999986      -1.17544306E-03   2.09085923E-02   2.09416077E-02
   2.99999993E-02  0.409999967      -1.15319062E-03   2.21878700E-02   2.22178195E-02
   2.99999993E-02  0.430000007      -1.12746726E-03   2.34448425E-02   2.34719366E-02
   2.99999993E-02  0.449999988      -1.09870790E-03   2.46762577E-02   2.47007050E-02
   2.99999993E-02  0.469999969      -1.06759137E-03   2.58794148E-02   2.59014256E-02
   2.99999993E-02  0.490000010      -1.03509775E-03   2.70524323E-02   2.70722285E-02
   2.99999993E-02  0.509999990      -1.00256980E-03   2.81945989E-02   2.82124169E-02
   2.99999993E-02  0.529999971      -9.71744186E-04   2.93067619E-02   2.93228682E-02
   2.99999993E-02  0.549999952      -9.44837870E-04   3.03917639E-02   3.04064471E-02
   2.99999993E-02  0.569999993      -9.24593362E-04   3.14549655E-02   3.14685516E-02
   2.99999993E-02  0.589999974      -9.14386008E-04   3.25048342E-02   3.25176939E-02
   2.99999993E-02  0.610000014      -9.18375270E-04   3.35536599E-02   3.35662253E-02
   2.99999993E-02  0.629999995      -9.41674400E-04   3.46184261E-02   3.46312299E-02
   2.99999993E-02  0.649999976      -9.90647590E-04   3.57218832E-02   3.57356183E-02
   2.99999993E-02  0.669999957      -1.07336126E-03   3.68939713E-02   3.69095802E-02
   2.99999993E-02  0.689999998      -1.20022940E-03   3.81736979E-02   3.81925628E-02
   2.99999993E-02  0.709999979      -1.38510740E-03   3.96117158E-02   3.96359265E-02
   2.99999993E-02  0.730000019      -1.64689892E-03   4.12740037E-02   4.13068458E-02
   2.99999993E-02  0.750000000      -2.01222673E-03   4.32470590E-02   4.32938449E-02
   2.99999993E-02  0.769999981      -2.51982152E-03   4.56454530E-02   4.57149521E-02
   2.99999993E-02  0.789999962      -3.22764786E-03   4.86227982E-02   4.87298109E-02
   2.99999993E-02  0.809999943      -4.22503147E-03   5.23871779E-02   5.25572784E-02
   2.99999993E-02  0.829999983      -5.65256644E-03   5.72218373E-02   5.75003475E-02
   2.99999993E-02  0.849999964      -7.73403700E-03   6.35090172E-02   6.39782026E-02
   2.99999993E-02  0.870000005      -1.08221322E-02   7.17451498E-02   7.25567713E-02
   2.99999993E-02  0.889999986      -1.54432161E-02   8.25050175E-02   8.39378983E-02
   2.99999993E-02  0.909999967      -2.22457685E-02   9.62187797E-02   9.87569094E-02
   2.99999993E-02  0.929999948      -3.13952155E-02  0.112323388      0.116628483    
   2.99999993E-02  0.949999988      -3.91803235E-02  0.126364246      0.132298976    
   2.99999993E-02  0.969999969      -1.91423409E-02  0.120962292      0.122467563    
   2.99999993E-02  0.990000010      0.201615185       5.49977683E-02  0.208981901    
   2.99999993E-02   1.00000000       1.00000000       0.00000000       1.00000000    
   4.99999970E-02   0.00000000       0.00000000       0.00000000       0.00000000    
   4.99999970E-02   9.99999978E-03  -1.94925917E-04   9.78755343E-05   2.18118614E-04
   4.99999970E-02   2.99999993E-02  -6.94172981E-04   4.57326096E-04   8.31278099E-04
   4.99999970E-02   4.99999970E-02  -1.16846873E-03   1.12267258E-03   1.62040524E-03
   4.99999970E-02   7.00000003E-02  -1.57113536E-03   2.05093762E-03   2.58356566E-03
   4.99999970E-02   8.99999961E-02  -1.89552398E-03   3.19910911E-03   3.71850911E-03
   4.99999970E-02  0.109999999      -2.14954582E-03   4.52575088E-03   5.01028635E-03
   4.99999970E-02  0.129999995      -2.34483136E-03   5.99373737E-03   6.43607974E-03
   4.99999970E-02  0.150000006      -2.49277987E-03   7.57156033E-03   7.97135383E-03
   4.99999970E-02  0.169999987      -2.60331435E-03   9.23343748E-03   9.59341507E-03
   4.99999970E-02  0.189999998      -2.68462393E-03   1.09587852E-02   1.12828268E-02
   4.99999970E-02  0.209999993      -2.74322461E-03   1.27314255E-02   1.30236121E-02
   4.99999970E-02  0.229999989      -2.78412597E-03   1.45387296E-02   1.48029057E-02
   4.99999970E-02  0.250000000      -2.81102164E-03   1.63707975E-02   1.66103840E-02
   4.99999970E-02  0.269999981      -2.82649114E-03   1.82197411E-02   1.84376799E-02
   4.99999970E-02  0.289999992      -2.83222832E-03   2.00790539E-02   2.02778187E-02
   4.99999970E-02  0.310000002      -2.82919849E-03   2.19431221E-02   2.21247580E-02
   4.99999970E-02  0.329999983      -2.81788711E-03   2.38068439E-02   2.39730347E-02
   4.99999970E-02  0.349999994      -2.79845623E-03   2.56653484E-02   2.58174650E-02
   4.99999970E-02  0.370000005      -2.77091330E-03   2.75138430E-02   2.76530199E-02
   4.99999970E-02  0.389999986      -2.73529347E-03   2.93475520E-02   2.94747464E-02
   4.99999970E-02  0.409999967      -2.69175833E-03   3.11617479E-02   3.12777907E-02
   4.99999970E-02  0.430000007      -2.64078099E-03   3.29518579E-02   3.30575071E-02
   4.99999970E-02  0.449999988      -2.58323690E-03   3.47136334E-02   3.48096192E-02
   4.99999970E-02  0.469999969      -2.52052885E-03   3.64434384E-02   3.65304984E-02
   4.99999970E-02  0.490000010      -2.45468342E-03   3.81385908E-02   3.82175036E-02
   4.99999970E-02  0.509999990      -2.38848152E-03   3.97977158E-02   3.98693234E-02
   4.99999970E-02  0.529999971      -2.32557533E-03   4.14212421E-02   4.14864756E-02
   4.99999970E-02  0.549999952      -2.27059191E-03   4.30119112E-02   4.30718027E-02
   4.99999970E-02  0.569999993      -2.22927914E-03   4.45753708E-02   4.46310826E-02
   4.99999970E-02  0.589999974      -2.20873766E-03   4.61208969E-02   4.61737551E-02
   4.99999970E-02  0.610000014      -2.21761991E-03   4.76621427E-02   4.77137081E-02
   4.99999970E-02  0.629999995      -2.26652110E-03   4.92180586E-02   4.92702201E-02
   4.99999970E-02  0.649999976      -2.36848393E-03   5.08139879E-02   5.08691557E-02
   4.99999970E-02  0.669999957      -2.53977953E-03   5.24829514E-02   5.25443703E-02
   4.99999970E-02  0.689999998      -2.80098733E-03   5.42672873E-02   5.43395244E-02
   4.99999970E-02  0.709999979      -3.17878230E-03   5.62206581E-02   5.63104525E-02
   4.99999970E-02  0.730000019      -3.70838912E-03   5.84105626E-02   5.85281625E-02
   4.99999970E-02  0.750000000      -4.43757046E-03   6.09214269E-02   6.10828325E-02
   4.99999970E-02  0.769999981      -5.43256011E-03   6.38582334E-02   6.40888959E-02
   4.99999970E-02  0.789999962      -6.78711943E-03   6.73502386E-02   6.76913559E-02
   4.99999970E-02  0.809999943      -8.63593724E-03   7.15533942E-02   7.20726550E-02
   4.99999970E-02  0.829999983      -1.11733768E-02   7.66476169E-02   7.74577409E-02
   4.99999970E-02  0.849999964      -1.46754403E-02   8.28197896E-02   8.41099620E-02
   4.99999970E-02  0.870000005      -1.95105560E-02   9.02106017E-02   9.22963396E-02
   4.99999970E-02  0.889999986      -2.60810107E-02   9.87740159E-02  0.102159314    
   4.99999970E-02  0.909999967      -3.44788879E-02  0.107928187      0.113301754    
   4.99999970E-02  0.929999948      -4.30481620E-02  0.115706638      0.123455137    
   4.99999970E-02  0.949999988      -4.25651670E-02  0.116700530      0.124220803    
   4.99999970E-02  0.969999969       9.18525364E-03   9.71567184E-02   9.75899398E-02
   4.99999970E-02  0.990000010      0.296509445       3.98971923E-02  0.299181610    
   4.99999970E-02   1.00000000       1.00000000       0.00000000       1.00000000    
   7.00000003E-02   0.00000000       0.00000000       0.00000000       0.00000000    
   7.00000003E-02   9.99999978E-03  -4.29255917E-04   1.33355119E-04   4.49493295E-04
   7.00000003E-02   2.99999993E-02  -1.29591534E-03   6.03714958E-04   1.42963917E-03
   7.00000003E-02   4.99999970E-02  -2.07722350E-03   1.44254835E-03   2.52899248E-03
   7.00000003E-02   7.00000003E-02  -2.73607275E-03   2.58167367E-03   3.76179931E-03
   7.00000003E-02   8.99999961E-02  -3.27003933E-03   3.96667141E-03   5.14078187E-03
   7.00000003E-02  0.109999999      -3.69192986E-03   5.55066857E-03   6.66635344E-03
   7.00000003E-02  0.129999995      -4.01925016E-03   7.29325553E-03   8.32742080E-03
   7.00000003E-02  0.150000006      -4.26949980E-03   9.16038081E-03   1.01064937E-02
   7.00000003E-02  0.169999987      -4.45832079E-03   1.11240856E-02   1.19842356E-02
   7.00000003E-02  0.189999998      -4.59888298E-03   1.31619181E-02   1.39422314E-02
   7.00000003E-02  0.209999993      -4.70183510E-03   1.52561245E-02   1.59642287E-02
   7.00000003E-02  0.229999989      -4.77544125E-03   1.73927993E-02   1.80364717E-02
   7.00000003E-02  0.250000000      -4.82585561E-03   1.95610188E-02   2.01475136E-02
   7.00000003E-02  0.269999981      -4.85741906E-03   2.17520688E-02   2.22878233E-02
   7.00000003E-02  0.289999992      -4.87298705E-03   2.39587761E-02   2.44493131E-02
   7.00000003E-02  0.310000002      -4.87424713E-03   2.61749588E-02   2.66249273E-02
   7.00000003E-02  0.329999983      -4.86202911E-03   2.83949934E-02   2.88082454E-02
   7.00000003E-02  0.349999994      -4.83662402E-03   3.06134894E-02   3.09932046E-02
   7.00000003E-02  0.370000005      -4.79804818E-03   3.28251198E-02   3.31739336E-02
   7.00000003E-02  0.389999986      -4.74629970E-03   3.50245088E-02   3.53446417E-02
   7.00000003E-02  0.409999967      -4.68159840E-03   3.72062624E-02   3.74996439E-02
   7.00000003E-02  0.430000007      -4.60458733E-03   3.93650532E-02   3.96334417E-02
   7.00000003E-02  0.449999988      -4.51653916E-03   4.14957851E-02   4.17408571E-02
   7.00000003E-02  0.469999969      -4.41957451E-03   4.35938761E-02   4.38173339E-02
   7.00000003E-02  0.490000010      -4.31678863E-03   4.56555709E-02   4.58591953E-02
   7.00000003E-02  0.509999990      -4.21244837E-03   4.76783589E-02   4.78640869E-02
   7.00000003E-02  0.529999971      -4.11220081E-03   4.96614240E-02   4.98313867E-02
   7.00000003E-02  0.549999952      -4.02319618E-03   5.16061224E-02   5.17627075E-02
   7.00000003E-02  0.569999993      -3.95436538E-03   5.35166264E-02   5.36625199E-02
   7.00000003E-02  0.589999974      -3.91666405E-03   5.54005206E-02   5.55387996E-02
   7.00000003E-02  0.610000014      -3.92338727E-03   5.72694838E-02   5.74037172E-02
   7.00000003E-02  0.629999995      -3.99065204E-03   5.91401011E-02   5.92745915E-02
   7.00000003E-02  0.649999976      -4.13805712E-03   6.10346273E-02   6.11747429E-02
   7.00000003E-02  0.669999957      -4.38956125E-03   6.29818588E-02   6.31346405E-02
   7.00000003E-02  0.689999998      -4.77486430E-03   6.50181100E-02   6.51932061E-02
   7.00000003E-02  0.709999979      -5.33127040E-03   6.71880990E-02   6.73992857E-02
   7.00000003E-02  0.730000019      -6.10643253E-03   6.95457906E-02   6.98133633E-02
   7.00000003E-02  0.750000000      -7.16231577E-03   7.21548200E-02   7.25094229E-02
   7.00000003E-02  0.769999981      -8.58068746E-03   7.50880316E-02   7.55767226E-02
   7.00000003E-02  0.789999962      -1.04706399E-02   7.84248337E-02   7.91207254E-02
   7.00000003E-02  0.809999943      -1.29777156E-02   8.22441429E-02   8.32617581E-02
   7.00000003E-02  0.829999983      -1.62925422E-02   8.66080374E-02   8.81271735E-02
   7.00000003E-02  0.849999964      -2.06496790E-02   9.15264040E-02   9.38269198E-02
   7.00000003E-02  0.870000005      -2.62869168E-02   9.68832970E-02  0.100386135    
   7.00000003E-02  0.889999986      -3.32718603E-02  0.102284148      0.107559577    
   7.00000003E-02  0.909999967      -4.09006514E-02  0.106739588      0.114307493    
   7.00000003E-02  0.929999948      -4.56833318E-02  0.108015023      0.117278352    
   7.00000003E-02  0.949999988      -3.42873931E-02  0.101375446      0.107016847    
   7.00000003E-02  0.969999969       4.37178500E-02   7.81058446E-02   8.95085111E-02
   7.00000003E-02  0.990000010      0.366872907       3.04670315E-02  0.368135810    
   7.00000003E-02   1.00000000       1.00000000       0.00000000       1.00000000    
   8.99999961E-02   0.00000000       0.00000000       0.00000000       0.00000000    
   8.99999961E-02   9.99999978E-03  -7.21461605E-04   1.55780435E-04   7.38088333E-04
   8.99999961E-02   2.99999993E-02  -2.02516722E-03   7.00675184E-04   2.14295299E-03
   8.99999961E-02   4.99999970E-02  -3.15322727E-03   1.66083954E-03   3.56387859E-03
   8.99999961E-02   7.00000003E-02  -4.09270357E-03   2.94810673E-03   5.04396250E-03
   8.99999961E-02   8.99999961E-02  -4.85345675E-03   4.49693296E-03   6.61652815E-03
   8.99999961E-02  0.109999999      -5.45681268E-03   6.25503529E-03   8.30073934E-03
   8.99999961E-02  0.129999995      -5.92761301E-03   8.17952491E-03   1.01015456E-02
   8.99999961E-02  0.150000006      -6.29006885E-03   1.02351997E-02   1.20135043E-02
   8.99999961E-02  0.169999987      -6.56585116E-03   1.23935100E-02   1.40253156E-02
   8.99999961E-02  0.189999998      -6.77334005E-03   1.46316383E-02   1.61233675E-02
   8.99999961E-02  0.209999993      -6.92749768E-03   1.69315897E-02   1.82939600E-02
   8.99999961E-02  0.229999989      -7.04001030E-03   1.92792602E-02   2.05244161E-02
   8.99999961E-02  0.250000000      -7.11961277E-03   2.16635689E-02   2.28034873E-02
   8.99999961E-02  0.269999981      -7.17250677E-03   2.40756571E-02   2.51213480E-02
   8.99999961E-02  0.289999992      -7.20276125E-03   2.65082084E-02   2.74693444E-02
   8.99999961E-02  0.310000002      -7.21279159E-03   2.89548524E-02   2.98397020E-02
   8.99999961E-02  0.329999983      -7.20376894E-03   3.14097293E-02   3.22252288E-02
   8.99999961E-02  0.349999994      -7.17606209E-03   3.38671654E-02   3.46190818E-02
   8.99999961E-02  0.370000005      -7.12961983E-03   3.63214388E-02   3.70145701E-02
   8.99999961E-02  0.389999986      -7.06430990E-03   3.87666523E-02   3.94050479E-02
   8.99999961E-02  0.409999967      -6.98028412E-03   4.11967635E-02   4.17839400E-02
   8.99999961E-02  0.430000007      -6.87823631E-03   4.36056256E-02   4.41447683E-02
   8.99999961E-02  0.449999988      -6.75970223E-03   4.59871739E-02   4.64813262E-02
   8.99999961E-02  0.469999969      -6.62734918E-03   4.83356416E-02   4.87878695E-02
   8.99999961E-02  0.490000010      -6.48517348E-03   5.06458692E-02   5.10593913E-02
   8.99999961E-02  0.509999990      -6.33877050E-03   5.29137030E-02   5.32920249E-02
   8.99999961E-02  0.529999971      -6.19555265E-03   5.51363863E-02   5.54833859E-02
   8.99999961E-02  0.549999952      -6.06500544E-03   5.73130623E-02   5.76330759E-02
   8.99999961E-02  0.569999993      -5.95892640E-03   5.94452694E-02   5.97431920E-02
   8.99999961E-02  0.589999974      -5.89173101E-03   6.15374744E-02   6.18188754E-02
   8.99999961E-02  0.610000014      -5.88083873E-03   6.35976195E-02   6.38689399E-02
   8.99999961E-02  0.629999995      -5.94714982E-03   6.56376556E-02   6.59065247E-02
   8.99999961E-02  0.649999976      -6.11566007E-03   6.76740408E-02   6.79498166E-02
   8.99999961E-02  0.669999957      -6.41639717E-03   6.97281510E-02   7.00227469E-02
   8.99999961E-02  0.689999998      -6.88566733E-03   7.18265325E-02   7.21558258E-02
   8.99999961E-02  0.709999979      -7.56768091E-03   7.40008056E-02   7.43867531E-02
   8.99999961E-02  0.730000019      -8.51698872E-03   7.62871951E-02   7.67611563E-02
   8.99999961E-02  0.750000000      -9.80146229E-03   7.87250176E-02   7.93328285E-02
   8.99999961E-02  0.769999981      -1.15061393E-02   8.13535899E-02   8.21632370E-02
   8.99999961E-02  0.789999962      -1.37373712E-02   8.42061564E-02   8.53193551E-02
   8.99999961E-02  0.809999943      -1.66256949E-02   8.72987434E-02   8.88677984E-02
   8.99999961E-02  0.829999983      -2.03221105E-02   9.06095803E-02   9.28605646E-02
   8.99999961E-02  0.849999964      -2.49733869E-02   9.40416232E-02   9.73010659E-02
   8.99999961E-02  0.870000005      -3.06350421E-02   9.73536670E-02  0.102059990    
   8.99999961E-02  0.889999986      -3.70052233E-02  0.100031331      0.106656715    
   8.99999961E-02  0.909999967      -4.26348522E-02  0.101040423      0.109667212    
   8.99999961E-02  0.929999948      -4.25406583E-02   9.83534306E-02  0.107159249    
   8.99999961E-02  0.949999988      -2.05939729E-02   8.81537944E-02   9.05273557E-02
   8.99999961E-02  0.969999969       7.68360272E-02   6.46087080E-02  0.100389540    
   8.99999961E-02  0.990000010      0.421669573       2.43303850E-02  0.422370911    
   8.99999961E-02   1.00000000       1.00000000       0.00000000       1.00000000    
  0.109999999       0.00000000       0.00000000       0.00000000       0.00000000    
  0.109999999       9.99999978E-03  -1.04916142E-03   1.68885439E-04   1.06266746E-03
  0.109999999       2.99999993E-02  -2.84000626E-03   7.60399445E-04   2.94004125E-03
  0.109999999       4.99999970E-02  -4.34463471E-03   1.80029706E-03   4.70286328E-03
  0.109999999       7.00000003E-02  -5.58136590E-03   3.18693137E-03   6.42714370E-03
  0.109999999       8.99999961E-02  -6.57842774E-03   4.84558754E-03   8.17039981E-03
  0.109999999      0.109999999      -7.36940466E-03   6.71892101E-03   9.97256394E-03
  0.109999999      0.129999995      -7.98842311E-03   8.76173656E-03   1.18567673E-02
  0.109999999      0.150000006      -8.46733525E-03   1.09380800E-02   1.38324751E-02
  0.109999999      0.169999987      -8.83424189E-03   1.32194180E-02   1.58995874E-02
  0.109999999      0.189999998      -9.11289360E-03   1.55832805E-02   1.80522427E-02
  0.109999999      0.209999993      -9.32261627E-03   1.80121157E-02   2.02817041E-02
  0.109999999      0.229999989      -9.47851688E-03   2.04922594E-02   2.25781985E-02
  0.109999999      0.250000000      -9.59189143E-03   2.30130125E-02   2.49319691E-02
  0.109999999      0.269999981      -9.67073813E-03   2.55658031E-02   2.73337420E-02
  0.109999999      0.289999992      -9.72029101E-03   2.81434879E-02   2.97748204E-02
  0.109999999      0.310000002      -9.74359550E-03   3.07397656E-02   3.22470292E-02
  0.109999999      0.329999983      -9.74207744E-03   3.33487056E-02   3.47425416E-02
  0.109999999      0.349999994      -9.71605815E-03   3.59644108E-02   3.72537337E-02
  0.109999999      0.370000005      -9.66528617E-03   3.85807753E-02   3.97730283E-02
  0.109999999      0.389999986      -9.58933588E-03   4.11913618E-02   4.22928333E-02
  0.109999999      0.409999967      -9.48810391E-03   4.37893495E-02   4.48054820E-02
  0.109999999      0.430000007      -9.36214253E-03   4.63676155E-02   4.73033376E-02
  0.109999999      0.449999988      -9.21304151E-03   4.89188656E-02   4.97788675E-02
  0.109999999      0.469999969      -9.04376246E-03   5.14358580E-02   5.22248708E-02
  0.109999999      0.490000010      -8.85894429E-03   5.39116710E-02   5.46346866E-02
  0.109999999      0.509999990      -8.66521709E-03   5.63400686E-02   5.70025370E-02
  0.109999999      0.529999971      -8.47144052E-03   5.87158799E-02   5.93238547E-02
  0.109999999      0.549999952      -8.28904007E-03   6.10354245E-02   6.15957081E-02
  0.109999999      0.569999993      -8.13221000E-03   6.32969663E-02   6.38172254E-02
  0.109999999      0.589999974      -8.01827293E-03   6.55011535E-02   6.59901053E-02
  0.109999999      0.610000014      -7.96798803E-03   6.76513910E-02   6.81190044E-02
  0.109999999      0.629999995      -8.00603069E-03   6.97541758E-02   7.02121183E-02
  0.109999999      0.649999976      -8.16148147E-03   7.18193799E-02   7.22816214E-02
  0.109999999      0.669999957      -8.46858323E-03   7.38602653E-02   7.43441731E-02