 TITLE= "TESTPLOT" 
 VARIABLES="x","y","fx","fy","magf" 
 ZONE T="1", I=          51 , J=          51
   0.00000000       0.00000000       0.00000000       0.00000000       0.00000000    
   0.00000000       9.99999978E-03   0.00000000       0.00000000       0.00000000    
   0.00000000       2.99999993E-02   0.00000000       0.00000000       0.00000000    
   0.00000000       4.99999970E-02   0.00000000       0.00000000       0.00000000    
   0.00000000       7.00000003E-02   0.00000000       0.00000000       0.00000000    
   0.00000000       8.99999961E-02   0.00000000       0.00000000       0.00000000    
   0.00000000      0.109999999       0.00000000       0.00000000       0.00000000    
   0.00000000      0.129999995       0.00000000       0.00000000       0.00000000    
   0.00000000      0.150000006       0.00000000       0.00000000       0.00000000    
   0.00000000      0.169999987       0.00000000       0.00000000       0.00000000    
   0.00000000      0.189999998       0.00000000       0.00000000       0.00000000    
   0.00000000      0.209999993       0.00000000       0.00000000       0.00000000    
   0.00000000      0.229999989       0.00000000       0.00000000       0.00000000    
   0.00000000      0.250000000       0.00000000       0.00000000       0.00000000    
   0.00000000      0.269999981       0.00000000       0.00000000       0.00000000    
   0.00000000      0.289999992       0.00000000       0.00000000       0.00000000    
   0.00000000      0.310000002       0.00000000       0.00000000       0.00000000    
   0.00000000      0.329999983       0.00000000       0.00000000       0.00000000    
   0.00000000      0.349999994       0.00000000       0.00000000       0.00000000    
   0.00000000      0.370000005       0.00000000       0.00000000       0.00000000    
   0.00000000      0.389999986       0.00000000       0.00000000       0.00000000    
   0.00000000      0.409999967       0.00000000       0.00000000       0.00000000    
   0.00000000      0.430000007       0.00000000       0.00000000       0.00000000    
   0.00000000      0.449999988       0.00000000       0.00000000       0.00000000    
   0.00000000      0.469999969       0.00000000       0.00000000       0.00000000    
   0.00000000      0.490000010       0.00000000       0.00000000       0.00000000    
   0.00000000      0.509999990       0.00000000       0.00000000       0.00000000    
   0.00000000      0.529999971       0.00000000       0.00000000       0.00000000    
   0.00000000      0.549999952       0.00000000       0.00000000       0.00000000    
   0.00000000      0.569999993       0.00000000       0.00000000       0.00000000    
   0.00000000      0.589999974       0.00000000       0.00000000       0.00000000    
   0.00000000      0.610000014       0.00000000       0.00000000       0.00000000    
   0.00000000      0.629999995       0.00000000       0.00000000       0.00000000    
   0.00000000      0.649999976       0.00000000       0.00000000       0.00000000    
   0.00000000      0.669999957       0.00000000       0.00000000       0.00000000    
   0.00000000      0.689999998       0.00000000       0.00000000       0.00000000    
   0.00000000      0.709999979       0.00000000       0.00000000       0.00000000    
   0.00000000      0.730000019       0.00000000       0.00000000       0.00000000    
   0.00000000      0.750000000       0.00000000       0.00000000       0.00000000    
   0.00000000      0.769999981       0.00000000       0.00000000       0.00000000    
   0.00000000      0.789999962       0.00000000       0.00000000       0.00000000    
   0.00000000      0.809999943       0.00000000       0.00000000       0.00000000    
   0.00000000      0.829999983       0.00000000       0.00000000       0.00000000    
   0.00000000      0.849999964       0.00000000       0.00000000       0.00000000    
   0.00000000      0.870000005       0.00000000       0.00000000       0.00000000    
   0.00000000      0.889999986       0.00000000       0.00000000       0.00000000    
   0.00000000      0.909999967       0.00000000       0.00000000       0.00000000    
   0.00000000      0.929999948       0.00000000       0.00000000       0.00000000    
   0.00000000      0.949999988       0.00000000       0.00000000       0.00000000    
   0.00000000      0.969999969       0.00000000       0.00000000       0.00000000    
   0.00000000      0.990000010       0.00000000       0.00000000       0.00000000    
   0.00000000       1.00000000       1.00000000       0.00000000       1.00000000    
   9.99999978E-03   0.00000000       0.00000000       0.00000000       0.00000000    
   9.99999978E-03   9.99999978E-03   9.74324485E-06  -2.83534314E-06   1.01474134E-05
   9.99999978E-03   2.99999993E-02  -2.58796717E-05   2.72629986E-05   3.75902709E-05
   9.99999978E-03   4.99999970E-02  -5.96487844E-05   1.26894098E-04   1.40214441E-04
   9.99999978E-03   7.00000003E-02  -8.44828173E-05   2.85122136E-04   2.97375140E-04
   9.99999978E-03   8.99999961E-02  -1.00850084E-04   4.84549848E-04   4.94933629E-04
   9.99999978E-03  0.109999999      -1.10898029E-04   7.10389577E-04   7.18993542E-04
   9.99999978E-03  0.129999995      -1.16896001E-04   9.52268718E-04   9.59416677E-04
   9.99999978E-03  0.150000006      -1.20642559E-04   1.20388204E-03   1.20991177E-03
   9.99999978E-03  0.169999987      -1.23356105E-04   1.46194152E-03   1.46713655E-03
   9.99999978E-03  0.189999998      -1.25767270E-04   1.72510766E-03   1.72968605E-03
   9.99999978E-03  0.209999993      -1.28268337E-04   1.99316489E-03   1.99728785E-03
   9.99999978E-03  0.229999989      -1.31045221E-04   2.26647453E-03   2.27025989E-03
   9.99999978E-03  0.250000000      -1.34175483E-04   2.54566339E-03   2.54919706E-03
   9.99999978E-03  0.269999981      -1.37685580E-04   2.83146137E-03   2.83480692E-03
   9.99999978E-03  0.289999992      -1.41581462E-04   3.12463101E-03   3.12783709E-03
   9.99999978E-03  0.310000002      -1.45866099E-04   3.42594413E-03   3.42904800E-03
   9.99999978E-03  0.329999983      -1.50542153E-04   3.73617746E-03   3.73920915E-03
   9.99999978E-03  0.349999994      -1.55624162E-04   4.05612588E-03   4.05911030E-03
   9.99999978E-03  0.370000005      -1.61132339E-04   4.38661873E-03   4.38957708E-03
   9.99999978E-03  0.389999986      -1.67100283E-04   4.72853985E-03   4.73149167E-03
   9.99999978E-03  0.409999967      -1.73574605E-04   5.08285221E-03   5.08581521E-03
   9.99999978E-03  0.430000007      -1.80620904E-04   5.45063242E-03   5.45362430E-03
   9.99999978E-03  0.449999988      -1.88327002E-04   5.83310984E-03   5.83614921E-03
   9.99999978E-03  0.469999969      -1.96810215E-04   6.23171870E-03   6.23482559E-03
   9.99999978E-03  0.490000010      -2.06224664E-04   6.64816471E-03   6.65136240E-03
   9.99999978E-03  0.509999990      -2.16768822E-04   7.08450656E-03   7.08782207E-03
   9.99999978E-03  0.529999971      -2.28699195E-04   7.54325744E-03   7.54672335E-03
   9.99999978E-03  0.549999952      -2.42348135E-04   8.02752003E-03   8.03117733E-03
   9.99999978E-03  0.569999993      -2.58146698E-04   8.54115933E-03   8.54505971E-03
   9.99999978E-03  0.589999974      -2.76651233E-04   9.08902846E-03   9.09323804E-03
   9.99999978E-03  0.610000014      -2.98586761E-04   9.67726391E-03   9.68186930E-03
   9.99999978E-03  0.629999995      -3.24904657E-04   1.03136729E-02   1.03187896E-02
   9.99999978E-03  0.649999976      -3.56873119E-04   1.10082868E-02   1.10140694E-02
   9.99999978E-03  0.669999957      -3.96203017E-04   1.17741153E-02   1.17807798E-02
   9.99999978E-03  0.689999998      -4.45241079E-04   1.26282237E-02   1.26360701E-02
   9.99999978E-03  0.709999979      -5.07276505E-04   1.35933151E-02   1.36027774E-02
   9.99999978E-03  0.730000019      -5.87032468E-04   1.47001026E-02   1.47118187E-02
   9.99999978E-03  0.750000000      -6.91483787E-04   1.59909986E-02   1.60059426E-02
   9.99999978E-03  0.769999981      -8.31228797E-04   1.75259914E-02   1.75456926E-02
   9.99999978E-03  0.789999962      -1.02294330E-03   1.93923377E-02   1.94192994E-02
   9.99999978E-03  0.809999943      -1.29368110E-03   2.17210203E-02   2.17595119E-02
   9.99999978E-03  0.829999983      -1.68890203E-03   2.47155502E-02   2.47731879E-02
   9.99999978E-03  0.849999964      -2.28711870E-03   2.87033953E-02   2.87943706E-02
   9.99999978E-03  0.870000005      -3.22641176E-03   3.42286229E-02   3.43803503E-02
   9.99999978E-03  0.889999986      -4.74843243E-03   4.22150344E-02   4.24812511E-02
   9.99999978E-03  0.909999967      -7.25231599E-03   5.42272218E-02   5.47100306E-02
   9.99999978E-03  0.929999948      -1.12523092E-02   7.27431625E-02   7.36083016E-02
   9.99999978E-03  0.949999988      -1.64991543E-02  0.100505836      0.101851091    
   9.99999978E-03  0.969999969      -1.48220034E-02  0.131838113      0.132668689    
   9.99999978E-03  0.990000010       7.33354911E-02   7.33328238E-02  0.103710160    
   9.99999978E-03   1.00000000       1.00000000       0.00000000       1.00000000    
   2.99999993E-02   0.00000000       0.00000000       0.00000000       0.00000000    
   2.99999993E-02   9.99999978E-03  -3.15893249E-06   2.96055223E-05   2.97735751E-05
   2.99999993E-02   2.99999993E-02  -1.47899700E-04   1.62460827E-04   2.19699432E-04
   2.99999993E-02   4.99999970E-02  -2.80934968E-04   4.34451911E-04   5.17371169E-04
   2.99999993E-02   7.00000003E-02  -3.81578400E-04   8.22909060E-04   9.07073030E-04
   2.99999993E-02   8.99999961E-02  -4.50417574E-04   1.29844446E-03   1.37434865E-03
   2.99999993E-02  0.109999999      -4.94467327E-04   1.83403504E-03   1.89952157E-03
   2.99999993E-02  0.129999995      -5.21977781E-04   2.40908749E-03   2.46498757E-03
   2.99999993E-02  0.150000006      -5.39909815E-04   3.01008252E-03   3.05812014E-03
   2.99999993E-02  0.169999987      -5.53209451E-04   3.62937502E-03   3.67129454E-03
   2.99999993E-02  0.189999998      -5.64977643E-04   4.26346716E-03   4.30073868E-03
   2.99999993E-02  0.209999993      -5.76960505E-04   4.91146464E-03   4.94523672E-03
   2.99999993E-02  0.229999989      -5.90041222E-04   5.57394372E-03   5.60508668E-03
   2.99999993E-02  0.250000000      -6.04622881E-04   6.25224225E-03   6.28140941E-03
   2.99999993E-02  0.269999981      -6.20871200E-04   6.94805803E-03   6.97574299E-03
   2.99999993E-02  0.289999992      -6.38846715E-04   7.66325183E-03   7.68983457E-03
   2.99999993E-02  0.310000002      -6.58579753E-04   8.39975383E-03   8.42553191E-03
   2.99999993E-02  0.329999983      -6.80104946E-04   9.15955193E-03   9.18476656E-03
   2.99999993E-02  0.349999994      -7.03482423E-04   9.94469225E-03   9.96954367E-03
   2.99999993E-02  0.370000005      -7.28811719E-04   1.07573131E-02   1.07819736E-02
   2.99999993E-02  0.389999986      -7.56231078E-04   1.15996813E-02   1.16243064E-02
   2.99999993E-02  0.409999967      -7.85945216E-04   1.24742473E-02   1.24989823E-02
   2.99999993E-02  0.430000007      -8.18223692E-04   1.33837108E-02   1.34086991E-02
   2.99999993E-02  0.449999988      -8.53438920E-04   1.43311080E-02   1.43564967E-02
   2.99999993E-02  0.469999969      -8.92070995E-04   1.53199136E-02   1.53458640E-02
   2.99999993E-02  0.490000010      -9.34745825E-04   1.63541697E-02   1.63808614E-02
   2.99999993E-02  0.509999990      -9.82272904E-04   1.74386464E-02   1.74662881E-02
   2.99999993E-02  0.529999971      -1.03569531E-03   1.85790546E-02   1.86078995E-02
   2.99999993E-02  0.549999952      -1.09635014E-03   1.97823159E-02   1.98126733E-02
   2.99999993E-02  0.569999993      -1.16595929E-03   2.10568719E-02   2.10891273E-02
   2.99999993E-02  0.589999974      -1.24673289E-03   2.24131327E-02   2.24477798E-02
   2.99999993E-02  0.610000014      -1.34153268E-03   2.38640085E-02   2.39016861E-02
   2.99999993E-02  0.629999995      -1.45408814E-03   2.54256558E-02   2.54672021E-02
   2.99999993E-02  0.649999976      -1.58930756E-03   2.71184221E-02   2.71649547E-02
   2.99999993E-02  0.669999957      -1.75373186E-03   2.89681479E-02   2.90211849E-02
   2.99999993E-02  0.689999998      -1.95619673E-03   3.10079381E-02   3.10695823E-02
   2.99999993E-02  0.709999979      -2.20887968E-03   3.32806371E-02   3.33538614E-02
   2.99999993E-02  0.730000019      -2.52885651E-03   3.58423181E-02   3.59314196E-02
   2.99999993E-02  0.750000000      -2.94062193E-03   3.87672260E-02   3.88785936E-02
   2.99999993E-02  0.769999981      -3.48010287E-03   4.21548858E-02   4.22982909E-02
   2.99999993E-02  0.789999962      -4.20126412E-03   4.61401567E-02   4.63310331E-02
   2.99999993E-02  0.809999943      -5.18701971E-03   5.09073250E-02   5.11709005E-02
   2.99999993E-02  0.829999983      -6.56735338E-03   5.67085482E-02   5.70875630E-02
   2.99999993E-02  0.849999964      -8.54874402E-03   6.38844967E-02   6.44539371E-02
   2.99999993E-02  0.870000005      -1.14581073E-02   7.28760362E-02   7.37712979E-02
   2.99999993E-02  0.889999986      -1.57909263E-02   8.41870159E-02   8.56551602E-02
   2.99999993E-02  0.909999967      -2.21789423E-02   9.81668681E-02  0.100641146    
   2.99999993E-02  0.929999948      -3.08372192E-02  0.114185140      0.118275866    
   2.99999993E-02  0.949999988      -3.82542349E-02  0.127784908      0.133388042    
   2.99999993E-02  0.969999969      -1.82866678E-02  0.121694639      0.123060912    
   2.99999993E-02  0.990000010      0.201845139       5.51714189E-02  0.209249482    
   2.99999993E-02   1.00000000       1.00000000       0.00000000       1.00000000    
   4.99999970E-02   0.00000000       0.00000000       0.00000000       0.00000000    
   4.99999970E-02   9.99999978E-03  -8.00010384E-05   6.10923526E-05   1.00660029E-04
   4.99999970E-02   2.99999993E-02  -4.01565281E-04   2.86753464E-04   4.93439147E-04
   4.99999970E-02   4.99999970E-02  -6.83247868E-04   6.99035649E-04   9.77485790E-04
   4.99999970E-02   7.00000003E-02  -8.98626749E-04   1.25822157E-03   1.54617324E-03
   4.99999970E-02   8.99999961E-02  -1.04958401E-03   1.92717928E-03   2.19445815E-03
   4.99999970E-02  0.109999999      -1.14919513E-03   2.67375424E-03   2.91025965E-03
   4.99999970E-02  0.129999995      -1.21360272E-03   3.47331259E-03   3.67922988E-03
   4.99999970E-02  0.150000006      -1.25701388E-03   4.30928264E-03   4.48887516E-03
   4.99999970E-02  0.169999987      -1.28989015E-03   5.17198257E-03   5.33040520E-03
   4.99999970E-02  0.189999998      -1.31901656E-03   6.05678093E-03   6.19874196E-03
   4.99999970E-02  0.209999993      -1.34835916E-03   6.96234778E-03   7.09171034E-03
   4.99999970E-02  0.229999989      -1.38001982E-03   7.88932107E-03   8.00910965E-03
   4.99999970E-02  0.250000000      -1.41501904E-03   8.83941539E-03   8.95195734E-03
   4.99999970E-02  0.269999981      -1.45381165E-03   9.81489010E-03   9.92197730E-03
   4.99999970E-02  0.289999992      -1.49659545E-03   1.08182691E-02   1.09212976E-02
   4.99999970E-02  0.310000002      -1.54347275E-03   1.18522160E-02   1.19522940E-02
   4.99999970E-02  0.329999983      -1.59454788E-03   1.29194781E-02   1.30175073E-02
   4.99999970E-02  0.349999994      -1.64995738E-03   1.40228923E-02   1.41196270E-02
   4.99999970E-02  0.370000005      -1.70992571E-03   1.51654044E-02   1.52614983E-02
   4.99999970E-02  0.389999986      -1.77475996E-03   1.63501240E-02   1.64461639E-02
   4.99999970E-02  0.409999967      -1.84489437E-03   1.75803788E-02   1.76769160E-02
   4.99999970E-02  0.430000007      -1.92090753E-03   1.88597851E-02   1.89573579E-02
   4.99999970E-02  0.449999988      -2.00358871E-03   2.01923437E-02   2.02915035E-02
   4.99999970E-02  0.469999969      -2.09394353E-03   2.15825625E-02   2.16839015E-02
   4.99999970E-02  0.490000010      -2.19328701E-03   2.30356008E-02   2.31397804E-02
   4.99999970E-02  0.509999990      -2.30330881E-03   2.45574545E-02   2.46652346E-02
   4.99999970E-02  0.529999971      -2.42617028E-03   2.61551738E-02   2.62674596E-02
   4.99999970E-02  0.549999952      -2.56462465E-03   2.78371461E-02   2.79550347E-02
   4.99999970E-02  0.569999993      -2.72219442E-03   2.96134353E-02   2.97382902E-02
   4.99999970E-02  0.589999974      -2.90336995E-03   3.14962417E-02   3.16297784E-02
   4.99999970E-02  0.610000014      -3.11391242E-03   3.35004181E-02   3.36448289E-02
   4.99999970E-02  0.629999995      -3.36125516E-03   3.56442034E-02   3.58023345E-02
   4.99999970E-02  0.649999976      -3.65505135E-03   3.79500613E-02   3.81256677E-02
   4.99999970E-02  0.669999957      -4.00796439E-03   4.04458530E-02   4.06439528E-02
   4.99999970E-02  0.689999998      -4.43681562E-03   4.31662761E-02   4.33936939E-02
   4.99999970E-02  0.709999979      -4.96427389E-03   4.61547673E-02   4.64209691E-02
   4.99999970E-02  0.730000019      -5.62124606E-03   4.94658574E-02   4.97842282E-02
   4.99999970E-02  0.750000000      -6.45062048E-03   5.31681217E-02   5.35580032E-02
   4.99999970E-02  0.769999981      -7.51266815E-03   5.73476031E-02   5.78375980E-02
   4.99999970E-02  0.789999962      -8.89317971E-03   6.21111691E-02   6.27446100E-02
   4.99999970E-02  0.809999943      -1.07152676E-02   6.75882846E-02   6.84323981E-02
   4.99999970E-02  0.829999983      -1.31554194E-02   7.39272609E-02   7.50886425E-02
   4.99999970E-02  0.849999964      -1.64622050E-02   8.12764615E-02   8.29268768E-02
   4.99999970E-02  0.870000005      -2.09649168E-02   8.97285491E-02   9.21452120E-02
   4.99999970E-02  0.889999986      -2.70198509E-02   9.91763994E-02  0.102791198    
   4.99999970E-02  0.909999967      -3.46923694E-02  0.108961701      0.114351265    
   4.99999970E-02  0.929999948      -4.23898287E-02  0.117032006      0.124472439    
   4.99999970E-02  0.949999988      -4.11634147E-02  0.117916323      0.124894701    
   4.99999970E-02  0.969999969       1.07470779E-02   9.79041159E-02   9.84922126E-02
   4.99999970E-02  0.990000010      0.297138572       4.01165746E-02  0.299834400    
   4.99999970E-02   1.00000000       1.00000000       0.00000000       1.00000000    
   7.00000003E-02   0.00000000       0.00000000       0.00000000       0.00000000    
   7.00000003E-02   9.99999978E-03  -2.10274651E-04   8.28795746E-05   2.26018703E-04
   7.00000003E-02   2.99999993E-02  -7.61521631E-04   3.75138712E-04   8.48907686E-04
   7.00000003E-02   4.99999970E-02  -1.22110196E-03   8.88639712E-04   1.51022198E-03
   7.00000003E-02   7.00000003E-02  -1.57044153E-03   1.56708201E-03   2.21856544E-03
   7.00000003E-02   8.99999961E-02  -1.81772502E-03   2.36603525E-03   2.98366323E-03
   7.00000003E-02  0.109999999      -1.98390614E-03   3.25025944E-03   3.80789582E-03
   7.00000003E-02  0.129999995      -2.09392584E-03   4.19366872E-03   4.68736421E-03
   7.00000003E-02  0.150000006      -2.16994341E-03   5.17886225E-03   5.61509328E-03
   7.00000003E-02  0.169999987      -2.22855597E-03   6.19563973E-03   6.58425502E-03
   7.00000003E-02  0.189999998      -2.28074775E-03   7.23908329E-03   7.58987106E-03
   7.00000003E-02  0.209999993      -2.33309064E-03   8.30777828E-03   8.62916559E-03
   7.00000003E-02  0.229999989      -2.38917768E-03   9.40244272E-03   9.70124174E-03
   7.00000003E-02  0.250000000      -2.45081703E-03   1.05249947E-02   1.08065736E-02
   7.00000003E-02  0.269999981      -2.51885410E-03   1.16779860E-02   1.19465468E-02
   7.00000003E-02  0.289999992      -2.59367935E-03   1.28642870E-02   1.31231500E-02
   7.00000003E-02  0.310000002      -2.67550233E-03   1.40869319E-02   1.43387578E-02
   7.00000003E-02  0.329999983      -2.76450766E-03   1.53490547E-02   1.55960247E-02
   7.00000003E-02  0.349999994      -2.86092935E-03   1.66538805E-02   1.68978292E-02
   7.00000003E-02  0.370000005      -2.96510989E-03   1.80047378E-02   1.82472598E-02
   7.00000003E-02  0.389999986      -3.07753868E-03   1.94050930E-02   1.96476169E-02
   7.00000003E-02  0.409999967      -3.19888396E-03   2.08586194E-02   2.11024843E-02
   7.00000003E-02  0.430000007      -3.33004934E-03   2.23692488E-02   2.26157568E-02
   7.00000003E-02  0.449999988      -3.47223715E-03   2.39412673E-02   2.41917484E-02
   7.00000003E-02  0.469999969      -3.62699898E-03   2.55794227E-02   2.58352850E-02
   7.00000003E-02  0.490000010      -3.79634672E-03   2.72890441E-02   2.75518466E-02
   7.00000003E-02  0.509999990      -3.98287084E-03   2.90762335E-02   2.93477532E-02
   7.00000003E-02  0.529999971      -4.18983446E-03   3.09480280E-02   3.12303565E-02
   7.00000003E-02  0.549999952      -4.42140922E-03   3.29126567E-02   3.32083069E-02
   7.00000003E-02  0.569999993      -4.68286127E-03   3.49798203E-02   3.52918804E-02
   7.00000003E-02  0.589999974      -4.98087564E-03   3.71610485E-02   3.74933705E-02
   7.00000003E-02  0.610000014      -5.32393996E-03   3.94701101E-02   3.98275517E-02
   7.00000003E-02  0.629999995      -5.72287664E-03   4.19235304E-02   4.23123352E-02
   7.00000003E-02  0.649999976      -6.19153492E-03   4.45411541E-02   4.49694283E-02
   7.00000003E-02  0.669999957      -6.74781576E-03   4.73469049E-02   4.78253327E-02
   7.00000003E-02  0.689999998      -7.41502130E-03   5.03695682E-02   5.09124324E-02
   7.00000003E-02  0.709999979      -8.22378788E-03   5.36436401E-02   5.42703494E-02
   7.00000003E-02  0.730000019      -9.21471231E-03   5.72101809E-02   5.79475276E-02
   7.00000003E-02  0.750000000      -1.04421182E-02   6.11173250E-02   6.20029457E-02
   7.00000003E-02  0.769999981      -1.19790258E-02   6.54199347E-02   6.65076301E-02
   7.00000003E-02  0.789999962      -1.39235621E-02   7.01771230E-02   7.15450495E-02
   7.00000003E-02  0.809999943      -1.64061878E-02   7.54450709E-02   7.72083029E-02
   7.00000003E-02  0.829999983      -1.95949562E-02   8.12600851E-02   8.35892558E-02
   7.00000003E-02  0.849999964      -2.36897934E-02   8.76012594E-02   9.07479301E-02
   7.00000003E-02  0.870000005      -2.88776606E-02   9.43125039E-02   9.86345187E-02
   7.00000003E-02  0.889999986      -3.51619907E-02  0.100942224      0.106891058    
   7.00000003E-02  0.909999967      -4.17885855E-02  0.106417678      0.114328511    
   7.00000003E-02  0.929999948      -4.53148335E-02  0.108390711      0.117481835    
   7.00000003E-02  0.949999988      -3.27191651E-02  0.102009006      0.107127875    
   7.00000003E-02  0.969999969       4.57446091E-02   7.86010548E-02   9.09433588E-02
   7.00000003E-02  0.990000010      0.367903084       3.06426212E-02  0.369176984    
   7.00000003E-02   1.00000000       1.00000000       0.00000000       1.00000000    
   8.99999961E-02   0.00000000       0.00000000       0.00000000       0.00000000    
   8.99999961E-02   9.99999978E-03  -3.75223230E-04   9.55541400E-05   3.87198990E-04
   8.99999961E-02   2.99999993E-02  -1.19479781E-03   4.28778963E-04   1.26940664E-03
   8.99999961E-02   4.99999970E-02  -1.85168535E-03   1.00667414E-03   2.10763654E-03
   8.99999961E-02   7.00000003E-02  -2.34487443E-03   1.76077033E-03   2.93236226E-03
   8.99999961E-02   8.99999961E-02  -2.69434880E-03   2.64039077E-03   3.77242337E-03
   8.99999961E-02  0.109999999      -2.93143839E-03   3.60783096E-03   4.64863144E-03
   8.99999961E-02  0.129999995      -3.09084496E-03   4.63636685E-03   5.57218306E-03
   8.99999961E-02  0.150000006      -3.20301764E-03   5.70863765E-03   6.54582819E-03
   8.99999961E-02  0.169999987      -3.29082366E-03   6.81464281E-03   7.56762037E-03
   8.99999961E-02  0.189999998      -3.36953765E-03   7.94965960E-03   8.63428507E-03
   8.99999961E-02  0.209999993      -3.44841462E-03   9.11243632E-03   9.74310283E-03
   8.99999961E-02  0.229999989      -3.53260501E-03   1.03038289E-02   1.08925747E-02
   8.99999961E-02  0.250000000      -3.62475822E-03   1.15258917E-02   1.20824268E-02
   8.99999961E-02  0.269999981      -3.72615037E-03   1.27813183E-02   1.33133885E-02
   8.99999961E-02  0.289999992      -3.83737823E-03   1.40731204E-02   1.45869181E-02
   8.99999961E-02  0.310000002      -3.95876961E-03   1.54044740E-02   1.59050208E-02
   8.99999961E-02  0.329999983      -4.09057830E-03   1.67786404E-02   1.72700789E-02
   8.99999961E-02  0.349999994      -4.23312839E-03   1.81989446E-02   1.86847784E-02
   8.99999961E-02  0.370000005      -4.38685436E-03   1.96687952E-02   2.01520715E-02
   8.99999961E-02  0.389999986      -4.55238856E-03   2.11917013E-02   2.16751564E-02
   8.99999961E-02  0.409999967      -4.73060366E-03   2.27713082E-02   2.32574958E-02
   8.99999961E-02  0.430000007      -4.92266519E-03   2.44114697E-02   2.49028597E-02
   8.99999961E-02  0.449999988      -5.13013080E-03   2.61163004E-02   2.66153980E-02
   8.99999961E-02  0.469999969      -5.35500934E-03   2.78902743E-02   2.83997096E-02
   8.99999961E-02  0.490000010      -5.59991132E-03   2.97383238E-02   3.02609801E-02
   8.99999961E-02  0.509999990      -5.86816715E-03   3.16659659E-02   3.22051048E-02
   8.99999961E-02  0.529999971      -6.16398454E-03   3.36794630E-02   3.42388786E-02
   8.99999961E-02  0.549999952      -6.49269111E-03   3.57859693E-02   3.63701880E-02
   8.99999961E-02  0.569999993      -6.86098030E-03   3.79937589E-02   3.86082716E-02
   8.99999961E-02  0.589999974      -7.27727218E-03   4.03124616E-02   4.09640484E-02
   8.99999961E-02  0.610000014      -7.75217684E-03   4.27532941E-02   4.34504375E-02
   8.99999961E-02  0.629999995      -8.29903409E-03   4.53293696E-02   4.60828133E-02
   8.99999961E-02  0.649999976      -8.93468782E-03   4.80559915E-02   4.88795117E-02
   8.99999961E-02  0.669999957      -9.68055055E-03   5.09508923E-02   5.18623814E-02
   8.99999961E-02  0.689999998      -1.05639165E-02   5.40344417E-02   5.50573990E-02
   8.99999961E-02  0.709999979      -1.16197746E-02   5.73296398E-02   5.84953576E-02
   8.99999961E-02  0.730000019      -1.28931366E-02   6.08617105E-02   6.22123852E-02
   8.99999961E-02  0.750000000      -1.44419894E-02   6.46568537E-02   6.62501305E-02
   8.99999961E-02  0.769999981      -1.63406357E-02   6.87395036E-02   7.06550479E-02
   8.99999961E-02  0.789999962      -1.86826736E-02   7.31265917E-02   7.54754320E-02
   8.99999961E-02  0.809999943      -2.15813927E-02   7.78162554E-02   8.07534903E-02
   8.99999961E-02  0.829999983      -2.51617264E-02   8.27662647E-02   8.65064561E-02
   8.99999961E-02  0.849999964      -2.95286737E-02   8.78535137E-02   9.26832333E-02
   8.99999961E-02  0.870000005      -3.46727297E-02   9.27987099E-02   9.90646183E-02
   8.99999961E-02  0.889999986      -4.02030461E-02   9.70272869E-02  0.105026565    
   8.99999961E-02  0.909999967      -4.45856228E-02   9.94118005E-02  0.108952209    
   8.99999961E-02  0.929999948      -4.28560898E-02   9.77986306E-02  0.106776476    
   8.99999961E-02  0.949999988      -1.92233138E-02   8.82470235E-02   9.03165191E-02
   8.99999961E-02  0.969999969       7.90435970E-02   6.48811758E-02  0.102261707    
   8.99999961E-02  0.990000010      0.423005134       2.44542342E-02  0.423711389    
   8.99999961E-02   1.00000000       1.00000000       0.00000000       1.00000000    
  0.109999999       0.00000000       0.00000000       0.00000000       0.00000000    
  0.109999999       9.99999978E-03  -5.59325621E-04   1.01766804E-04   5.68508229E-04
  0.109999999       2.99999993E-02  -1.67191867E-03   4.56485373E-04   1.73311599E-03
  0.109999999       4.99999970E-02  -2.53871363E-03   1.06973096E-03   2.75488500E-03
  0.109999999       7.00000003E-02  -3.18099675E-03   1.86576205E-03   3.68779176E-03
  0.109999999       8.99999961E-02  -3.63455643E-03   2.78944173E-03   4.58159205E-03
  0.109999999      0.109999999      -3.94341955E-03   3.80115071E-03   5.47716208E-03
  0.109999999      0.129999995      -4.15307283E-03   4.87376750E-03   6.40325109E-03
  0.109999999      0.150000006      -4.30256873E-03   5.99019695E-03   7.37526640E-03
  0.109999999      0.169999987      -4.42106137E-03   7.14086927E-03   8.39867815E-03
  0.109999999      0.189999998      -4.52804100E-03   8.32144357E-03   9.47362557E-03
  0.109999999      0.209999993      -4.63537732E-03   9.53093916E-03   1.05983736E-02
  0.109999999      0.229999989      -4.74973628E-03   1.07703926E-02   1.17712086E-02
  0.109999999      0.250000000      -4.87457681E-03   1.20419711E-02   1.29911723E-02
  0.109999999      0.269999981      -5.01159253E-03   1.33484304E-02   1.42582133E-02
  0.109999999      0.289999992      -5.16157737E-03   1.46928225E-02   1.55730825E-02
  0.109999999      0.310000002      -5.32495324E-03   1.60783269E-02   1.69371702E-02
  0.109999999      0.329999983      -5.50202839E-03   1.75081864E-02   1.83523539E-02
  0.109999999      0.349999994      -5.69316931E-03   1.89856756E-02   1.98209006E-02
  0.109999999      0.370000005      -5.89887518E-03   2.05140933E-02   2.13453695E-02
  0.109999999      0.389999986      -6.11986127E-03   2.20967922E-02   2.29286049E-02
  0.109999999      0.409999967      -6.35713525E-03   2.37371922E-02   2.45737154E-02
  0.109999999      0.430000007      -6.61204336E-03   2.54388377E-02   2.62840930E-02
  0.109999999      0.449999988      -6.88638818E-03   2.72054262E-02   2.80634556E-02
  0.109999999      0.469999969      -7.18251429E-03   2.90408805E-02   2.99159028E-02
  0.109999999      0.490000010      -7.50346109E-03   3.09494250E-02   3.18460166E-02
  0.109999999      0.509999990      -7.85308704E-03   3.29356641E-02   3.38589586E-02
  0.109999999      0.529999971      -8.23630299E-03   3.50046903E-02   3.59606035E-02
  0.109999999      0.549999952      -8.65923706E-03   3.71621959E-02   3.81577164E-02
  0.109999999      0.569999993      -9.12960619E-03   3.94145772E-02   4.04581092E-02
  0.109999999      0.589999974      -9.65700857E-03   4.17691022E-02   4.28709202E-02
  0.109999999      0.610000014      -1.02534220E-02   4.42339592E-02   4.54067811E-02
  0.109999999      0.629999995      -1.09337512E-02   4.68183905E-02   4.80781496E-02
  0.109999999      0.649999976      -1.17165493E-02   4.95327264E-02   5.08995913E-02
  0.109999999      0.669999957      -1.26249697E-02   5.23883179E-02   5.38880862E-02