 TITLE = "TESTPLOT" 
 VARIABLES="x","y","fx","fy","magf" 
 ZONE T="1", I=          61 , J=          21
   0.00000000       0.00000000       1.00000000       0.00000000       1.00000000    
   0.00000000       2.50000004E-02   1.00000000       0.00000000       1.00000000    
   0.00000000       7.50000030E-02   1.00000000       0.00000000       1.00000000    
   0.00000000      0.125000000       1.00000000       0.00000000       1.00000000    
   0.00000000      0.175000012       1.00000000       0.00000000       1.00000000    
   0.00000000      0.224999994       1.00000000       0.00000000       1.00000000    
   0.00000000      0.275000006       1.00000000       0.00000000       1.00000000    
   0.00000000      0.324999988       1.00000000       0.00000000       1.00000000    
   0.00000000      0.375000000       1.00000000       0.00000000       1.00000000    
   0.00000000      0.425000012       1.00000000       0.00000000       1.00000000    
   0.00000000      0.475000024       1.00000000       0.00000000       1.00000000    
   0.00000000      0.524999976       1.00000000       0.00000000       1.00000000    
   0.00000000      0.575000048       1.00000000       0.00000000       1.00000000    
   0.00000000      0.625000000       1.00000000       0.00000000       1.00000000    
   0.00000000      0.675000012       1.00000000       0.00000000       1.00000000    
   0.00000000      0.725000024       1.00000000       0.00000000       1.00000000    
   0.00000000      0.774999976       1.00000000       0.00000000       1.00000000    
   0.00000000      0.825000048       1.00000000       0.00000000       1.00000000    
   0.00000000      0.875000000       1.00000000       0.00000000       1.00000000    
   0.00000000      0.925000012       1.00000000       0.00000000       1.00000000    
   0.00000000      0.975000024       1.00000000       0.00000000       1.00000000    
   0.00000000       1.00000000       1.00000000       0.00000000       1.00000000    
   8.33333358E-02   0.00000000      0.500000000       0.00000000      0.500000000    
   8.33333358E-02   2.50000004E-02  0.674263716       9.53580886E-02  0.680973351    
   8.33333358E-02   7.50000030E-02  0.870007157      0.227168858      0.899176359    
   8.33333358E-02  0.125000000      0.977209151      0.267916322       1.01327038    
   8.33333358E-02  0.175000012       1.03236639      0.259959877       1.06459355    
   8.33333358E-02  0.224999994       1.05727768      0.227984726       1.08157897    
   8.33333358E-02  0.275000006       1.06537986      0.186106324       1.08151269    
   8.33333358E-02  0.324999988       1.06504655      0.141897589       1.07445765    
   8.33333358E-02  0.375000000       1.06144464       9.88694578E-02   1.06603932    
   8.33333358E-02  0.425000012       1.05765676       5.80582470E-02   1.05924904    
   8.33333358E-02  0.475000024       1.05538893       1.90638006E-02   1.05556118    
   8.33333358E-02  0.524999976       1.05539465      -1.92519855E-02   1.05557024    
   8.33333358E-02  0.575000048       1.05767345      -5.82530908E-02   1.05927646    
   8.33333358E-02  0.625000000       1.06147242      -9.90774706E-02   1.06608629    
   8.33333358E-02  0.675000012       1.06508517     -0.142125309       1.07452595    
   8.33333358E-02  0.725000024       1.06542754     -0.186359733       1.08160341    
   8.33333358E-02  0.774999976       1.05733275     -0.228268594       1.08169270    
   8.33333358E-02  0.825000048       1.03242517     -0.260276943       1.06472814    
   8.33333358E-02  0.875000000      0.977266669     -0.268265963       1.01341832    
   8.33333358E-02  0.925000012      0.870056331     -0.227541029      0.899318039    
   8.33333358E-02  0.975000024      0.674294889      -9.55476090E-02  0.681030810    
   8.33333358E-02   1.00000000      0.500000000       0.00000000      0.500000000    
  0.250000000       0.00000000       0.00000000       0.00000000       0.00000000    
  0.250000000       2.50000004E-02  0.272608757       2.04001144E-02  0.273370981    
  0.250000000       7.50000030E-02  0.633394361       7.02249259E-02  0.637275398    
  0.250000000      0.125000000      0.867609441      0.123132870      0.876303494    
  0.250000000      0.175000012       1.01407588      0.159254700       1.02650476    
  0.250000000      0.224999994       1.10065055      0.173506752       1.11424243    
  0.250000000      0.275000006       1.14776444      0.167461097       1.15991664    
  0.250000000      0.324999988       1.17034698      0.145168245       1.17931581    
  0.250000000      0.375000000       1.17905772      0.111126393       1.18428302    
  0.250000000      0.425000012       1.18115962       6.94067925E-02   1.18319702    
  0.250000000      0.475000024       1.18114591       2.34273169E-02   1.18137825    
  0.250000000      0.524999976       1.18115902      -2.39091031E-02   1.18140090    
  0.250000000      0.575000048       1.18119717      -6.98902979E-02   1.18326294    
  0.250000000      0.625000000       1.17911780     -0.111612648       1.18438852    
  0.250000000      0.675000012       1.17042565     -0.145656526       1.17945409    
  0.250000000      0.725000024       1.14785624     -0.167948842       1.16007793    
  0.250000000      0.774999976       1.10074949     -0.173989743       1.11441553    
  0.250000000      0.825000048       1.01417351     -0.159727305       1.02667463    
  0.250000000      0.875000000      0.867696881     -0.123588622      0.876454234    
  0.250000000      0.925000012      0.633463621      -7.06536621E-02  0.637391627    
  0.250000000      0.975000024      0.272651374      -2.06060503E-02  0.273428917    
  0.250000000       1.00000000       0.00000000       0.00000000       0.00000000    
  0.416666687       0.00000000       0.00000000       0.00000000       0.00000000    
  0.416666687       2.50000004E-02  0.176522598       3.67487385E-03  0.176560849    
  0.416666687       7.50000030E-02  0.482715130       1.80061273E-02  0.483050853    
  0.416666687      0.125000000      0.730897188       4.10739779E-02  0.732050359    
  0.416666687      0.175000012      0.921259940       6.35745302E-02  0.923450947    
  0.416666687      0.224999994       1.06014597       7.90853351E-02   1.06309164    
  0.416666687      0.275000006       1.15655696       8.44128430E-02   1.15963328    
  0.416666687      0.324999988       1.22000551       7.89394826E-02   1.22255671    
  0.416666687      0.375000000       1.25918901       6.38138503E-02   1.26080501    
  0.416666687      0.425000012       1.28117752       4.12580706E-02   1.28184164    
  0.416666687      0.475000024       1.29091120       1.40718203E-02   1.29098785    
  0.416666687      0.524999976       1.29092193      -1.46808410E-02   1.29100537    
  0.416666687      0.575000048       1.28120649      -4.18619663E-02   1.28189015    
  0.416666687      0.625000000       1.25923133      -6.44072145E-02   1.26087737    
  0.416666687      0.675000012       1.22005367      -7.95164853E-02   1.22264218    
  0.416666687      0.725000024       1.15660501      -8.49678516E-02   1.15972185    
  0.416666687      0.774999976       1.06018651      -7.96132833E-02   1.06317151    
  0.416666687      0.825000048      0.921287298      -6.40716031E-02  0.923512518    
  0.416666687      0.875000000      0.730909705      -4.15387005E-02  0.732089102    
  0.416666687      0.925000012      0.482718349      -1.84353311E-02  0.483070254    
  0.416666687      0.975000024      0.176528603      -3.87981650E-03  0.176571235    
  0.416666687       1.00000000       0.00000000       0.00000000       0.00000000    
  0.583333373       0.00000000       0.00000000       0.00000000       0.00000000    
  0.583333373       2.50000004E-02  0.149559781      -3.36988160E-04  0.149560153    
  0.583333373       7.50000030E-02  0.421193302       2.00348510E-03  0.421198040    
  0.583333373      0.125000000      0.657776713       9.08674486E-03  0.657839477    
  0.583333373      0.175000012      0.855484605       1.80189461E-02  0.855674326    
  0.583333373      0.224999994       1.01401627       2.58461945E-02   1.01434565    
  0.583333373      0.275000006       1.13578367       3.03574614E-02   1.13618934    
  0.583333373      0.324999988       1.22490430       3.03618461E-02   1.22528052    
  0.583333373      0.375000000       1.28616440       2.56942604E-02   1.28642106    
  0.583333373      0.425000012       1.32407546       1.70572884E-02   1.32418537    
  0.583333373      0.475000024       1.34209704       5.78770507E-03   1.34210956    
  0.583333373      0.524999976       1.34209776      -6.39892183E-03   1.34211302    
  0.583333373      0.575000048       1.32407308      -1.76613703E-02   1.32419086    
  0.583333373      0.625000000       1.28615546      -2.62840632E-02   1.28642404    
  0.583333373      0.675000012       1.22488284      -3.09314169E-02   1.22527337    
  0.583333373      0.725000024       1.13574648      -3.09019983E-02   1.13616681    
  0.583333373      0.774999976       1.01396084      -2.63620485E-02   1.01430345    
  0.583333373      0.825000048      0.855413198      -1.85045376E-02  0.855613291    
  0.583333373      0.875000000      0.657699525      -9.54272971E-03  0.657768786    
  0.583333373      0.925000012      0.421129286      -2.42798519E-03  0.421136290    
  0.583333373      0.975000024      0.149536535       1.33288384E-04  0.149536595    
  0.583333373       1.00000000       0.00000000       0.00000000       0.00000000    
  0.750000000       0.00000000       0.00000000       0.00000000       0.00000000    
  0.750000000       2.50000004E-02  0.139958084      -1.53371587E-03  0.139966488    
  0.750000000       7.50000030E-02  0.395950824      -3.29493638E-03  0.395964533    
  0.750000000      0.125000000      0.623126984      -2.65220506E-03  0.623132646    
  0.750000000      0.175000012      0.818573654      -3.52221134E-04  0.818573713    
  0.750000000      0.224999994      0.981189132       2.50851456E-03  0.981192350    
  0.750000000      0.275000006       1.11144757       4.91401833E-03   1.11145842    
  0.750000000      0.324999988       1.21106219       6.13145065E-03   1.21107769    
  0.750000000      0.375000000       1.28248417       5.82438754E-03   1.28249741    
  0.750000000      0.425000012       1.32829261       4.06927941E-03   1.32829881    
  0.750000000      0.475000024       1.35060000       1.29210774E-03   1.35060060    
  0.750000000      0.524999976       1.35058928      -1.85040897E-03   1.35059059    
  0.750000000      0.575000048       1.32825756      -4.62176092E-03   1.32826555    
  0.750000000      0.625000000       1.28242373      -6.36583986E-03   1.28243959    
  0.750000000      0.675000012       1.21097434      -6.65736292E-03   1.21099257    
  0.750000000      0.725000024       1.11133218      -5.42091345E-03   1.11134541    
  0.750000000      0.774999976      0.981050730      -2.99423467E-03  0.981055260    
  0.750000000      0.825000048      0.818421483      -1.11806497E-04  0.818421483    
  0.750000000      0.875000000      0.622979522       2.20926106E-03  0.622983456    
  0.750000000      0.925000012      0.395836890       2.87629920E-03  0.395847321    
  0.750000000      0.975000024      0.139914572       1.33139500E-03  0.139920905    
  0.750000000       1.00000000       0.00000000       0.00000000       0.00000000    
  0.916666687       0.00000000       0.00000000       0.00000000       0.00000000    
  0.916666687       2.50000004E-02  0.135545865      -1.89387216E-03  0.135559097    
  0.916666687       7.50000030E-02  0.383600861      -4.97815385E-03  0.383633167    
  0.916666687      0.125000000      0.604563713      -6.58879988E-03  0.604599655    
  0.916666687      0.175000012      0.796197534      -6.84310263E-03  0.796226978    
  0.916666687      0.224999994      0.957592487      -6.14554808E-03  0.957612216    
  0.916666687      0.275000006       1.08886838      -4.93072858E-03   1.08887959    
  0.916666687      0.324999988       1.19097447      -3.57990246E-03   1.19097984    
  0.916666687      0.375000000       1.26540971      -2.35565426E-03   1.26541197    
  0.916666687      0.425000012       1.31383014      -1.37082371E-03   1.31383085    
  0.916666687      0.475000024       1.33763361      -5.96296857E-04   1.33763373    
  0.916666687      0.524999976       1.33761477       9.72309208E-05   1.33761477    
  0.916666687      0.575000048       1.31377339       8.74980004E-04   1.31377363    
  0.916666687      0.625000000       1.26531386       1.86594750E-03   1.26531518    
  0.916666687      0.675000012       1.19084060       3.09908902E-03   1.19084466    
  0.916666687      0.725000024       1.08870006       4.46122047E-03   1.08870924    
  0.916666687      0.774999976      0.957399249       5.68885915E-03  0.957416177    
  0.916666687      0.825000048      0.795993805       6.39939960E-03  0.796019554    
  0.916666687      0.875000000      0.604372859       6.15782849E-03  0.604404211    
  0.916666687      0.925000012      0.383456945       4.56471927E-03  0.383484125    
  0.916666687      0.975000024      0.135490656       1.69275107E-03  0.135501236    
  0.916666687       1.00000000       0.00000000       0.00000000       0.00000000    
   1.08333337       0.00000000       0.00000000       0.00000000       0.00000000    
   1.08333337       2.50000004E-02  0.132629246      -1.98244350E-03  0.132644057    
   1.08333337       7.50000030E-02  0.375347197      -5.42149507E-03  0.375386357    
   1.08333337      0.125000000      0.591596842      -7.68699963E-03  0.591646791    
   1.08333337      0.175000012      0.779414773      -8.74422677E-03  0.779463828    
   1.08333337      0.224999994      0.938086927      -8.78909789E-03  0.938128114    
   1.08333337      0.275000006       1.06774163      -8.04696232E-03   1.06777191    
   1.08333337      0.324999988       1.16914821      -6.74396008E-03   1.16916764    
   1.08333337      0.375000000       1.24349928      -5.07892435E-03   1.24350965    
   1.08333337      0.425000012       1.29210806      -3.20559274E-03   1.29211199    
   1.08333337      0.475000024       1.31608582      -1.23070367E-03   1.31608641    
   1.08333337      0.524999976       1.31606293       7.74163171E-04   1.31606317    
   1.08333337      0.575000048       1.29203963       2.75058439E-03   1.29204249    
   1.08333337      0.625000000       1.24338388       4.62714070E-03   1.24339247    
   1.08333337      0.675000012       1.16898894       6.29688893E-03   1.16900599    
   1.08333337      0.725000024       1.06754470       7.60538969E-03   1.06757176    
   1.08333337      0.774999976      0.937864065       8.35346617E-03  0.937901258    
   1.08333337      0.825000048      0.779184163       8.31492245E-03  0.779228508    
   1.08333337      0.875000000      0.591384530       7.26448651E-03  0.591429174    
   1.08333337      0.925000012      0.375189275       5.01178484E-03  0.375222743    
   1.08333337      0.975000024      0.132568836       1.78219390E-03  0.132580817    
   1.08333337       1.00000000       0.00000000       0.00000000       0.00000000    
   1.25000000       0.00000000       0.00000000       0.00000000       0.00000000    
   1.25000000       2.50000004E-02  0.130044490      -1.99345080E-03  0.130059764    
   1.25000000       7.50000030E-02  0.368142426      -5.49208838E-03  0.368183374    
   1.25000000      0.125000000      0.580206633      -7.89064821E-03  0.580260277    
   1.25000000      0.175000012      0.764354110      -9.13490634E-03  0.764408708    
   1.25000000      0.224999994      0.919981837      -9.37445834E-03  0.920029581    
   1.25000000      0.275000006       1.04727030      -8.77666101E-03   1.04730701    
   1.25000000      0.324999988       1.14696622      -7.51588726E-03   1.14699090    
   1.25000000      0.375000000       1.22017884      -5.76200662E-03   1.22019243    
   1.25000000      0.425000012       1.26811326      -3.67234461E-03   1.26811862    
   1.25000000      0.475000024       1.29178143      -1.38892839E-03   1.29178214    
   1.25000000      0.524999976       1.29175711       9.57746466E-04   1.29175746    
   1.25000000      0.575000048       1.26803899       3.24168848E-03   1.26804316    
   1.25000000      0.625000000       1.22005439       5.33250812E-03   1.22006607    
   1.25000000      0.675000012       1.14679587       7.08789146E-03   1.14681768    
   1.25000000      0.725000024       1.04706156       8.35068058E-03   1.04709482    
   1.25000000      0.774999976      0.919747233       8.95080902E-03  0.919790804    
   1.25000000      0.825000048      0.764113545       8.71367473E-03  0.764163256    
   1.25000000      0.875000000      0.579986930       7.47259939E-03  0.580035090    
   1.25000000      0.925000012      0.367979884       5.08415233E-03  0.368014991    
   1.25000000      0.975000024      0.129982293       1.79357606E-03  0.129994661    
   1.25000000       1.00000000       0.00000000       0.00000000       0.00000000    
   1.41666675       0.00000000       0.00000000       0.00000000       0.00000000    
   1.41666675       2.50000004E-02  0.127481267      -1.98901328E-03  0.127496779    
   1.41666675       7.50000030E-02  0.361089230      -5.48017677E-03  0.361130804    
   1.41666675      0.125000000      0.569112122      -7.87999481E-03  0.569166660    
   1.41666675      0.175000012      0.749675870      -9.14083235E-03  0.749731600    
   1.41666675      0.224999994      0.902238011      -9.40901414E-03  0.902287066    
   1.41666675      0.275000006       1.02701879      -8.84147920E-03   1.02705681    
   1.41666675      0.324999988       1.12476945      -7.60029582E-03   1.12479520    
   1.41666675      0.375000000       1.19657397      -5.84587082E-03   1.19658828    
   1.41666675      0.425000012       1.24360037      -3.73233622E-03   1.24360597    
   1.41666675      0.475000024       1.26682508      -1.40702864E-03   1.26682591    
   1.41666675      0.524999976       1.26680064       9.88231041E-04   1.26680100    
   1.41666675      0.575000048       1.24352479       3.31368251E-03   1.24352920    
   1.41666675      0.625000000       1.19644725       5.42728882E-03   1.19645953    
   1.41666675      0.675000012       1.12459660       7.18175620E-03   1.12461948    
   1.41666675      0.725000024       1.02680790       8.42280872E-03   1.02684247    
   1.41666675      0.774999976      0.902001917       8.99030082E-03  0.902046740    
   1.41666675      0.825000048      0.749434769       8.72262847E-03  0.749485493    
   1.41666675      0.875000000      0.568892658       7.46369362E-03  0.568941593    
   1.41666675      0.925000012      0.360927194       5.07307146E-03  0.360962838    
   1.41666675      0.975000024      0.127419442       1.78932829E-03  0.127432004    
   1.41666675       1.00000000       0.00000000       0.00000000       0.00000000    
   1.58333349       0.00000000       0.00000000       0.00000000       0.00000000    
   1.58333349       2.50000004E-02  0.124889098      -1.98504259E-03  0.124904871    
   1.58333349       7.50000030E-02  0.353998244      -5.46421297E-03  0.354040414    
   1.58333349      0.125000000      0.558004558      -7.84804113E-03  0.558059752    
   1.58333349      0.175000012      0.735020816      -9.09581129E-03  0.735077083    
   1.58333349      0.224999994      0.884543836      -9.35763866E-03  0.884593308    
   1.58333349      0.275000006       1.00682139      -8.79125297E-03   1.00685978    
   1.58333349      0.324999988       1.10260618      -7.55719282E-03   1.10263205    
   1.58333349      0.375000000       1.17296648      -5.81330527E-03   1.17298079    
   1.58333349      0.425000012       1.21904778      -3.71172978E-03   1.21905351    
   1.58333349      0.475000024       1.24180675      -1.39854255E-03   1.24180746    
   1.58333349      0.524999976       1.24178195       9.84633458E-04   1.24178231    
   1.58333349      0.575000048       1.21897292       3.29773081E-03   1.21897745    
   1.58333349      0.625000000       1.17284083       5.39898686E-03   1.17285323    
   1.58333349      0.675000012       1.10243499       7.14224344E-03   1.10245812    
   1.58333349      0.725000024       1.00661314       8.37545190E-03   1.00664794    
   1.58333349      0.774999976      0.884310961       8.94115306E-03  0.884356141    
   1.58333349      0.825000048      0.734783173       8.67916830E-03  0.734834433    
   1.58333349      0.875000000      0.557788610       7.43251946E-03  0.557838142    
   1.58333349      0.925000012      0.353839219       5.05727902E-03  0.353875339    
   1.58333349      0.975000024      0.124828815       1.78535539E-03  0.124841586    
   1.58333349       1.00000000       0.00000000       0.00000000       0.00000000    
   1.75000000       0.00000000       0.00000000       0.00000000       0.00000000    
   1.75000000       2.50000004E-02  0.122277893      -1.98332057E-03  0.122293979    
   1.75000000       7.50000030E-02  0.346865296      -5.45621896E-03  0.346908212    
   1.75000000      0.125000000      0.546851754      -7.83006102E-03  0.546907783    
   1.75000000      0.175000012      0.720332384      -9.06773657E-03  0.720389426    
   1.75000000      0.224999994      0.866835952      -9.32213664E-03  0.866886079    
   1.75000000      0.275000006      0.986630559      -8.75279307E-03  0.986669362    
   1.75000000      0.324999988       1.08046579      -7.52092432E-03   1.08049190    
   1.75000000      0.375000000       1.14939260      -5.78376185E-03   1.14940715    
   1.75000000      0.425000012       1.19453526      -3.69235314E-03   1.19454098    
   1.75000000      0.475000024       1.21682966      -1.39139348E-03   1.21683037    
   1.75000000      0.524999976       1.21680522       9.78721073E-04   1.21680558    
   1.75000000      0.575000048       1.19446123       3.27927386E-03   1.19446576    
   1.75000000      0.625000000       1.14926934       5.37023786E-03   1.14928186    
   1.75000000      0.675000012       1.08029771       7.10685411E-03   1.08032107    
   1.75000000      0.725000024      0.986426294       8.33813846E-03  0.986461520    
   1.75000000      0.774999976      0.866607904       8.90677422E-03  0.866653681    
   1.75000000      0.825000048      0.720099509       8.65204819E-03  0.720151484    
   1.75000000      0.875000000      0.546640396       7.41542783E-03  0.546690702    
   1.75000000      0.925000012      0.346709728       5.04986150E-03  0.346746504    
   1.75000000      0.975000024      0.122218773       1.78378471E-03  0.122231789    
   1.75000000       1.00000000       0.00000000       0.00000000       0.00000000    
   1.91666675       0.00000000       0.00000000       0.00000000       0.00000000    
   1.91666675       2.50000004E-02  0.119660109      -1.98310567E-03  0.119676545    
   1.91666675       7.50000030E-02  0.339711666      -5.45419473E-03  0.339755446    
   1.91666675      0.125000000      0.535671830      -7.82403257E-03  0.535728931    
   1.91666675      0.175000012      0.705619216      -9.05690156E-03  0.705677330    
   1.91666675      0.224999994      0.849112749      -9.30727459E-03  0.849163711    
   1.91666675      0.275000006      0.966436565      -8.73581879E-03  0.966476023    
   1.91666675      0.324999988       1.05833483      -7.50421640E-03   1.05836141    
   1.91666675      0.375000000       1.12583923      -5.76977711E-03   1.12585402    
   1.91666675      0.425000012       1.17005050      -3.68298125E-03   1.17005634    
   1.91666675      0.475000024       1.19188499      -1.38800684E-03   1.19188583    
   1.91666675      0.524999976       1.19186139       9.75553703E-04   1.19186175    
   1.91666675      0.575000048       1.16997838       3.27013084E-03   1.16998291    
   1.91666675      0.625000000       1.12571907       5.35637792E-03   1.12573183    
   1.91666675      0.675000012       1.05817080       7.09011964E-03   1.05819464    
   1.91666675      0.725000024      0.966236830       8.32095742E-03  0.966272652    
   1.91666675      0.774999976      0.848890185       8.89184326E-03  0.848936737    
   1.91666675      0.825000048      0.705392241       8.64129793E-03  0.705445170    
   1.91666675      0.875000000      0.535465717       7.40955956E-03  0.535516977    
   1.91666675      0.925000012      0.339559734       5.04804589E-03  0.339597255    
   1.91666675      0.975000024      0.119602308       1.78366876E-03  0.119615607    
   1.91666675       1.00000000       0.00000000       0.00000000       0.00000000    
   2.08333349       0.00000000       0.00000000       0.00000000       0.00000000    
   2.08333349       2.50000004E-02  0.117042556      -1.98368775E-03  0.117059365    
   2.08333349       7.50000030E-02  0.332551360      -5.45527553E-03  0.332596093    
   2.08333349      0.125000000      0.524480581      -7.82416761E-03  0.524538934    
   2.08333349      0.175000012      0.690894485      -9.05515812E-03  0.690953791    
   2.08333349      0.224999994      0.831380844      -9.30377841E-03  0.831432879    
   2.08333349      0.275000006      0.946238935      -8.73110816E-03  0.946279228    
   2.08333349      0.324999988       1.03620577      -7.49895349E-03   1.03623295    
   2.08333349      0.375000000       1.10229349      -5.76495286E-03   1.10230863    
   2.08333349      0.425000012       1.14557731      -3.67974630E-03   1.14558327    
   2.08333349      0.475000024       1.16695404      -1.38692500E-03   1.16695487    
   2.08333349      0.524999976       1.16693115       9.74406255E-04   1.16693151    
   2.08333349      0.575000048       1.14550698       3.26687936E-03   1.14551163    
   2.08333349      0.625000000       1.10217607       5.35163470E-03   1.10218906    
   2.08333349      0.675000012       1.03604603       7.08488282E-03   1.03607023    
   2.08333349      0.725000024      0.946043849       8.31600651E-03  0.946080387    
   2.08333349      0.774999976      0.831163347       8.88778642E-03  0.831210852    
   2.08333349      0.825000048      0.690672755       8.63882899E-03  0.690726757    
   2.08333349      0.875000000      0.524278939       7.40881450E-03  0.524331272    
   2.08333349      0.925000012      0.332402825       5.04839839E-03  0.332441181    
   2.08333349      0.975000024      0.116986006       1.78400066E-03  0.116999604    
   2.08333349       1.00000000       0.00000000       0.00000000       0.00000000    
   2.25000000       0.00000000       0.00000000       0.00000000       0.00000000    
   2.25000000       2.50000004E-02  0.114427686      -1.98445050E-03  0.114444889    
   2.25000000       7.50000030E-02  0.325390041      -5.45714609E-03  0.325435787    
   2.25000000      0.125000000      0.513284624      -7.82621931E-03  0.513344288    
   2.25000000      0.175000012      0.676164150      -9.05667432E-03  0.676224828    
   2.25000000      0.224999994      0.813643992      -9.30457376E-03  0.813697219    
   2.25000000      0.275000006      0.926038027      -8.73132329E-03  0.926079214    
   2.25000000      0.324999988       1.01407564      -7.49888970E-03   1.01410341    
   2.25000000      0.375000000       1.07874823      -5.76481130E-03   1.07876360    
   2.25000000      0.425000012       1.12110639      -3.67964525E-03   1.12111247    
   2.25000000      0.475000024       1.14202619      -1.38719415E-03   1.14202702    
   2.25000000      0.524999976       1.14200377       9.73790768E-04   1.14200425    
   2.25000000      0.575000048       1.12103772       3.26612149E-03   1.12104249    
   2.25000000      0.625000000       1.07863343       5.35076298E-03   1.07864666    
   2.25000000      0.675000012       1.01391935       7.08418246E-03   1.01394403    
   2.25000000      0.725000024      0.925847769       8.31580907E-03  0.925885081    
   2.25000000      0.774999976      0.813431680       8.88822973E-03  0.813480198    
   2.25000000      0.825000048      0.675947666       8.64002667E-03  0.676002860    
   2.25000000      0.875000000      0.513087928       7.41070975E-03  0.513141453    
   2.25000000      0.925000012      0.325245321       5.05023263E-03  0.325284541    
   2.25000000      0.975000024      0.114372760       1.78474921E-03  0.114386685    
   2.25000000       1.00000000       0.00000000       0.00000000       0.00000000    
   2.41666698       0.00000000       0.00000000       0.00000000       0.00000000    
   2.41666698       2.50000004E-02  0.111817248      -1.98523677E-03  0.111834869    
   2.41666698       7.50000030E-02  0.318230629      -5.45918848E-03  0.318277448    
   2.41666698      0.125000000      0.502087176      -7.82886147E-03  0.502148211    
   2.41666698      0.175000012      0.661430597      -9.05932393E-03  0.661492646    
   2.41666698      0.224999994      0.795903802      -9.30680707E-03  0.795958221    
   2.41666698      0.275000006      0.905834079      -8.73307884E-03  0.905876160    
   2.41666698      0.324999988      0.991943121      -7.50032766E-03  0.991971493    
   2.41666698      0.375000000       1.05520058      -5.76583669E-03   1.05521631    
   2.41666698      0.425000012       1.09663343      -3.68017983E-03   1.09663963    
   2.41666698      0.475000024       1.11709666      -1.38728367E-03   1.11709750    
   2.41666698      0.524999976       1.11707473       9.74146707E-04   1.11707509    
   2.41666698      0.575000048       1.09656644       3.26692313E-03   1.09657133    
   2.41666698      0.625000000       1.05508900       5.35187870E-03   1.05510259    
   2.41666698      0.675000012      0.991790533       7.08556920E-03  0.991815865    
   2.41666698      0.725000024      0.905648351       8.31763819E-03  0.905686557    
   2.41666698      0.774999976      0.795696735       8.89050402E-03  0.795746386    