 TITLE = "TESTPLOT" 
 VARIABLES="x","y","fx","fy","magf" 
 ZONE T="1", I=          61 , J=          21
   0.00000000       0.00000000       1.00000000       0.00000000       1.00000000    
   0.00000000       2.50000004E-02   1.00000000       0.00000000       1.00000000    
   0.00000000       7.50000030E-02   1.00000000       0.00000000       1.00000000    
   0.00000000      0.125000000       1.00000000       0.00000000       1.00000000    
   0.00000000      0.175000012       1.00000000       0.00000000       1.00000000    
   0.00000000      0.224999994       1.00000000       0.00000000       1.00000000    
   0.00000000      0.275000006       1.00000000       0.00000000       1.00000000    
   0.00000000      0.324999988       1.00000000       0.00000000       1.00000000    
   0.00000000      0.375000000       1.00000000       0.00000000       1.00000000    
   0.00000000      0.425000012       1.00000000       0.00000000       1.00000000    
   0.00000000      0.475000024       1.00000000       0.00000000       1.00000000    
   0.00000000      0.524999976       1.00000000       0.00000000       1.00000000    
   0.00000000      0.575000048       1.00000000       0.00000000       1.00000000    
   0.00000000      0.625000000       1.00000000       0.00000000       1.00000000    
   0.00000000      0.675000012       1.00000000       0.00000000       1.00000000    
   0.00000000      0.725000024       1.00000000       0.00000000       1.00000000    
   0.00000000      0.774999976       1.00000000       0.00000000       1.00000000    
   0.00000000      0.825000048       1.00000000       0.00000000       1.00000000    
   0.00000000      0.875000000       1.00000000       0.00000000       1.00000000    
   0.00000000      0.925000012       1.00000000       0.00000000       1.00000000    
   0.00000000      0.975000024       1.00000000       0.00000000       1.00000000    
   0.00000000       1.00000000       1.00000000       0.00000000       1.00000000    
   8.33333358E-02   0.00000000      0.500000000       0.00000000      0.500000000    
   8.33333358E-02   2.50000004E-02  0.674329042       9.53294784E-02  0.681034029    
   8.33333358E-02   7.50000030E-02  0.870011687      0.227100492      0.899163485    
   8.33333358E-02  0.125000000      0.977141738      0.267847478       1.01318717    
   8.33333358E-02  0.175000012       1.03226805      0.259921491       1.06448889    
   8.33333358E-02  0.224999994       1.05718493      0.227984175       1.08148825    
   8.33333358E-02  0.275000006       1.06531227      0.186134607       1.08145094    
   8.33333358E-02  0.324999988       1.06500649      0.141939074       1.07442331    
   8.33333358E-02  0.375000000       1.06142616       9.89095420E-02   1.06602466    
   8.33333358E-02  0.425000012       1.05765224       5.80863953E-02   1.05924606    
   8.33333358E-02  0.475000024       1.05539107       1.90736465E-02   1.05556345    
   8.33333358E-02  0.524999976       1.05539656      -1.92624498E-02   1.05557239    
   8.33333358E-02  0.575000048       1.05766857      -5.82815930E-02   1.05927312    
   8.33333358E-02  0.625000000       1.06145430      -9.91180688E-02   1.06607211    
   8.33333358E-02  0.675000012       1.06504512     -0.142167702       1.07449186    
   8.33333358E-02  0.725000024       1.06535959     -0.186389029       1.08154154    
   8.33333358E-02  0.774999976       1.05724049     -0.228268862       1.08160257    
   8.33333358E-02  0.825000048       1.03232813     -0.260239065       1.06462467    
   8.33333358E-02  0.875000000      0.977200031     -0.268197834       1.01333606    
   8.33333358E-02  0.925000012      0.870061040     -0.227473736      0.899305582    
   8.33333358E-02  0.975000024      0.674360394      -9.55195874E-02  0.681091726    
   8.33333358E-02   1.00000000      0.500000000       0.00000000      0.500000000    
  0.250000000       0.00000000       0.00000000       0.00000000       0.00000000    
  0.250000000       2.50000004E-02  0.272630960       2.04233676E-02  0.273394853    
  0.250000000       7.50000030E-02  0.632943869       7.03993440E-02  0.636846900    
  0.250000000      0.125000000      0.866783738      0.123632640      0.875556409    
  0.250000000      0.175000012       1.01316023      0.160157710       1.02574074    
  0.250000000      0.224999994       1.09991324      0.174771130       1.11371183    
  0.250000000      0.275000006       1.14738810      0.168943375       1.15975916    
  0.250000000      0.324999988       1.17040896      0.146660149       1.17956197    
  0.250000000      0.375000000       1.17953873      0.112400495       1.18488204    
  0.250000000      0.425000012       1.18196297       7.02625141E-02   1.18404949    
  0.250000000      0.475000024       1.18212318       2.37282906E-02   1.18236136    
  0.250000000      0.524999976       1.18213606      -2.42111720E-02   1.18238401    
  0.250000000      0.575000048       1.18200052      -7.07473233E-02   1.18411589    
  0.250000000      0.625000000       1.17960036     -0.112888038       1.18498969    
  0.250000000      0.675000012       1.17049003     -0.147149712       1.17970335    
  0.250000000      0.725000024       1.14748240     -0.169432968       1.15992379    
  0.250000000      0.774999976       1.10001469     -0.175256312       1.11388826    
  0.250000000      0.825000048       1.01326096     -0.160631984       1.02591443    
  0.250000000      0.875000000      0.866874099     -0.124089845      0.875710547    
  0.250000000      0.925000012      0.633014917      -7.08298534E-02  0.636965275    
  0.250000000      0.975000024      0.272674471      -2.06302293E-02  0.273453802    
  0.250000000       1.00000000       0.00000000       0.00000000       0.00000000    
  0.416666687       0.00000000       0.00000000       0.00000000       0.00000000    
  0.416666687       2.50000004E-02  0.176068604       3.77602968E-03  0.176109090    
  0.416666687       7.50000030E-02  0.480735123       1.85196698E-02  0.481091708    
  0.416666687      0.125000000      0.727916837       4.23281193E-02  0.729146481    
  0.416666687      0.175000012      0.918166995       6.56857118E-02  0.920513570    
  0.416666687      0.224999994       1.05778086       8.19372088E-02   1.06094956    
  0.416666687      0.275000006       1.15552711       8.76916349E-02   1.15884972    
  0.416666687      0.324999988       1.22060132       8.22050199E-02   1.22336638    
  0.416666687      0.375000000       1.26137054       6.65876567E-02   1.26312685    
  0.416666687      0.425000012       1.28460300       4.31149527E-02   1.28532636    
  0.416666687      0.475000024       1.29501629       1.47206029E-02   1.29509997    
  0.416666687      0.524999976       1.29502559      -1.53434565E-02   1.29511642    
  0.416666687      0.575000048       1.28463054      -4.37319577E-02   1.28537464    
  0.416666687      0.625000000       1.26141286      -6.71926066E-02   1.26320124    
  0.416666687      0.675000012       1.22065234      -8.27917978E-02   1.22345686    
  0.416666687      0.725000024       1.15557766      -8.82540494E-02   1.15894282    
  0.416666687      0.774999976       1.05782390      -8.24701041E-02   1.06103384    
  0.416666687      0.825000048      0.918196440      -6.61860183E-02  0.920578778    
  0.416666687      0.875000000      0.727931857      -4.27947789E-02  0.729188740    
  0.416666687      0.925000012      0.480741352      -1.89501736E-02  0.481114686    
  0.416666687      0.975000024      0.176076755      -3.98159912E-03  0.176121771    
  0.416666687       1.00000000       0.00000000       0.00000000       0.00000000    
  0.583333373       0.00000000       0.00000000       0.00000000       0.00000000    
  0.583333373       2.50000004E-02  0.148250371      -1.99711372E-04  0.148250505    
  0.583333373       7.50000030E-02  0.416807294       2.66901636E-03  0.416815847    
  0.583333373      0.125000000      0.651541054       1.06710438E-02  0.651628435    
  0.583333373      0.175000012      0.849166036       2.06517465E-02  0.849417150    
  0.583333373      0.224999994       1.00928044       2.93787699E-02   1.00970793    
  0.583333373      0.275000006       1.13385749       3.44047844E-02   1.13437939    
  0.583333373      0.324999988       1.22639418       3.43847275E-02   1.22687614    
  0.583333373      0.375000000       1.29099953       2.91062593E-02   1.29132760    
  0.583333373      0.425000012       1.33154941       1.93372462E-02   1.33168983    
  0.583333373      0.475000024       1.35101914       6.57808315E-03   1.35103512    
  0.583333373      0.524999976       1.35101581      -7.22464500E-03   1.35103512    
  0.583333373      0.575000048       1.33153987      -1.99748352E-02   1.33168972    
  0.583333373      0.625000000       1.29098141      -2.97263321E-02   1.29132366    
  0.583333373      0.675000012       1.22636437      -3.49799618E-02   1.22686315    
  0.583333373      0.725000024       1.13381088      -3.49694267E-02   1.13435006    
  0.583333373      0.774999976       1.00921690      -2.99091451E-02   1.00966001    
  0.583333373      0.825000048      0.849088192      -2.11469568E-02  0.849351525    
  0.583333373      0.875000000      0.651459575      -1.11329854E-02  0.651554704    
  0.583333373      0.925000012      0.416742682      -3.09690763E-03  0.416754186    
  0.583333373      0.975000024      0.148228392      -5.15521151E-06  0.148228392    
  0.583333373       1.00000000       0.00000000       0.00000000       0.00000000    
  0.750000000       0.00000000       0.00000000       0.00000000       0.00000000    
  0.750000000       2.50000004E-02  0.137750596      -1.41925144E-03  0.137757897    
  0.750000000       7.50000030E-02  0.389092654      -2.73458101E-03  0.389102280    
  0.750000000      0.125000000      0.613564849      -1.30932801E-03  0.613566279    
  0.750000000      0.175000012      0.808960199       1.89063209E-03  0.808962405    
  0.750000000      0.224999994      0.974025607       5.53087238E-03  0.974041283    
  0.750000000      0.275000006       1.10859740       8.38975143E-03   1.10862911    
  0.750000000      0.324999988       1.21346760       9.59681068E-03   1.21350563    
  0.750000000      0.375000000       1.29005075       8.76919553E-03   1.29008055    
  0.750000000      0.425000012       1.33994198       6.03638869E-03   1.33995557    
  0.750000000      0.475000024       1.36449397       1.96670229E-03   1.36449540    
  0.750000000      0.524999976       1.36447620      -2.57972861E-03   1.36447871    
  0.750000000      0.575000048       1.33988929      -6.64093625E-03   1.33990574    
  0.750000000      0.625000000       1.28996396      -9.35748965E-03   1.28999794    
  0.750000000      0.675000012       1.21334863      -1.01626450E-02   1.21339118    
  0.750000000      0.725000024       1.10844898      -8.92861746E-03   1.10848498    
  0.750000000      0.774999976      0.973855138      -6.04026578E-03  0.973873854    
  0.750000000      0.825000048      0.808781266      -2.37041200E-03  0.808784723    
  0.750000000      0.875000000      0.613397717       8.57369974E-04  0.613398314    
  0.750000000      0.925000012      0.388968170       2.31170491E-03  0.388975054    
  0.750000000      0.975000024      0.137704462       1.21572684E-03  0.137709826    
  0.750000000       1.00000000       0.00000000       0.00000000       0.00000000    
  0.916666687       0.00000000       0.00000000       0.00000000       0.00000000    
  0.916666687       2.50000004E-02  0.132689595      -1.83099136E-03  0.132702231    
  0.916666687       7.50000030E-02  0.374891639      -4.64733317E-03  0.374920428    
  0.916666687      0.125000000      0.592471838      -5.76432515E-03  0.592499852    
  0.916666687      0.175000012      0.784045935      -5.43666538E-03  0.784064770    
  0.916666687      0.224999994      0.948525906      -4.22421005E-03  0.948535323    
  0.916666687      0.275000006       1.08525229      -2.69951159E-03   1.08525562    
  0.916666687      0.324999988       1.19402766      -1.34022313E-03   1.19402838    
  0.916666687      0.375000000       1.27503490      -4.44748643E-04   1.27503502    
  0.916666687      0.425000012       1.32866931      -9.40454847E-05   1.32866931    
  0.916666687      0.475000024       1.35534310      -1.65757054E-04   1.35534310    
  0.916666687      0.524999976       1.35531330      -3.93647904E-04   1.35531330    
  0.916666687      0.575000048       1.32858086      -4.59366740E-04   1.32858098    
  0.916666687      0.625000000       1.27489114      -9.68051900E-05   1.27489114    
  0.916666687      0.675000012       1.19383526       8.15515814E-04   1.19383562    
  0.916666687      0.725000024       1.08502185       2.19474803E-03   1.08502400    
  0.916666687      0.774999976      0.948271632       3.74077540E-03  0.948279023    
  0.916666687      0.825000048      0.783789337       4.97488445E-03  0.783805132    
  0.916666687      0.875000000      0.592241049       5.32312226E-03  0.592264950    
  0.916666687      0.925000012      0.374723732       4.22909856E-03  0.374747574    
  0.916666687      0.975000024      0.132626444       1.62845163E-03  0.132636443    
  0.916666687       1.00000000       0.00000000       0.00000000       0.00000000    
   1.08333337       0.00000000       0.00000000       0.00000000       0.00000000    
   1.08333337       2.50000004E-02  0.129452735      -1.96681009E-03  0.129467666    
   1.08333337       7.50000030E-02  0.365597665      -5.30198868E-03  0.365636140    
   1.08333337      0.125000000      0.578022778      -7.34250993E-03  0.578069389    
   1.08333337      0.175000012      0.765735984      -8.11746344E-03  0.765779018    
   1.08333337      0.224999994      0.927837491      -7.90252723E-03  0.927871168    
   1.08333337      0.275000006       1.06359899      -6.99551031E-03   1.06362200    
   1.08333337      0.324999988       1.17251158      -5.67410700E-03   1.17252529    
   1.08333337      0.375000000       1.25428307      -4.15900676E-03   1.25428998    
   1.08333337      0.425000012       1.30879402      -2.59090378E-03   1.30879653    
   1.08333337      0.475000024       1.33602476      -1.02989364E-03   1.33602512    
   1.08333337      0.524999976       1.33598638       5.22690709E-04   1.33598650    
   1.08333337      0.575000048       1.30868101       2.08729412E-03   1.30868268    
   1.08333337      0.625000000       1.25410008       3.66290589E-03   1.25410545    
   1.08333337      0.675000012       1.17226911       5.18860202E-03   1.17228067    
   1.08333337      0.725000024       1.06331241       6.52257539E-03   1.06333244    
   1.08333337      0.774999976      0.927526951       7.44323898E-03  0.927556813    
   1.08333337      0.825000048      0.765428007       7.67178973E-03  0.765466452    
   1.08333337      0.875000000      0.577750683       6.91009918E-03  0.577791989    
   1.08333337      0.925000012      0.365402281       4.88732196E-03  0.365434974    
   1.08333337      0.975000024      0.129379392       1.76505465E-03  0.129391432    
   1.08333337       1.00000000       0.00000000       0.00000000       0.00000000    
   1.25000000       0.00000000       0.00000000       0.00000000       0.00000000    
   1.25000000       2.50000004E-02  0.126802415      -2.00741552E-03  0.126818299    
   1.25000000       7.50000030E-02  0.357992232      -5.50701842E-03  0.358034581    
   1.25000000      0.125000000      0.565990567      -7.85585865E-03  0.566045105    
   1.25000000      0.175000012      0.749974608      -9.01768170E-03  0.750028789    
   1.25000000      0.224999994      0.909153938      -9.17114597E-03  0.909200191    
   1.25000000      0.275000006       1.04281926      -8.51007178E-03   1.04285395    
   1.25000000      0.324999988       1.15038180      -7.22910091E-03   1.15040445    
   1.25000000      0.375000000       1.23139215      -5.50826360E-03   1.23140454    
   1.25000000      0.425000012       1.28553963      -3.50274146E-03   1.28554440    
   1.25000000      0.475000024       1.31263494      -1.34021044E-03   1.31263566    
   1.25000000      0.524999976       1.31259108       8.73093377E-04   1.31259131    
   1.25000000      0.575000048       1.28541112       3.03824735E-03   1.28541470    
   1.25000000      0.625000000       1.23118567       5.04801562E-03   1.23119605    
   1.25000000      0.675000012       1.15010977       6.77461689E-03   1.15012968    
   1.25000000      0.725000024       1.04249978       8.06235615E-03   1.04253089    
   1.25000000      0.774999976      0.908810496       8.73047113E-03  0.908852398    
   1.25000000      0.825000048      0.749637127       8.58447701E-03  0.749686241    
   1.25000000      0.875000000      0.565695286       7.43050175E-03  0.565744102    
   1.25000000      0.925000012      0.357781887       5.09505905E-03  0.357818156    
   1.25000000      0.975000024      0.126723975       1.80614763E-03  0.126736850    
   1.25000000       1.00000000       0.00000000       0.00000000       0.00000000    
   1.41666675       0.00000000       0.00000000       0.00000000       0.00000000    
   1.41666675       2.50000004E-02  0.124319494      -2.01697159E-03  0.124335855    
   1.41666675       7.50000030E-02  0.350914299      -5.56043023E-03  0.350958347    
   1.41666675      0.125000000      0.554759145      -7.99901783E-03  0.554816782    
   1.41666675      0.175000012      0.735103309      -9.28087533E-03  0.735161901    
   1.41666675      0.224999994      0.891213894      -9.55589954E-03  0.891265154    
   1.41666675      0.275000006       1.02240968      -8.98277014E-03   1.02244914    
   1.41666675      0.324999988       1.12809384      -7.72453379E-03   1.12812030    
   1.41666675      0.375000000       1.20777535      -5.94390463E-03   1.20778990    
   1.41666675      0.425000012       1.26108479      -3.79785127E-03   1.26109052    
   1.41666675      0.475000024       1.28777623      -1.43607496E-03   1.28777707    
   1.41666675      0.524999976       1.28772950       9.96839022E-04   1.28772986    
   1.41666675      0.575000048       1.26094830       3.35912965E-03   1.26095283    
   1.41666675      0.625000000       1.20755672       5.50725032E-03   1.20756924    
   1.41666675      0.675000012       1.12780666       7.29070604E-03   1.12783027    
   1.41666675      0.725000024       1.02207518       8.55184533E-03   1.02211094    
   1.41666675      0.774999976      0.890856147       9.12818220E-03  0.890902936    
   1.41666675      0.825000048      0.734753609       8.85658059E-03  0.734807014    
   1.41666675      0.875000000      0.554454565       7.57878274E-03  0.554506361    
   1.41666675      0.925000012      0.350698680       5.15075354E-03  0.350736499    
   1.41666675      0.975000024      0.124239460       1.81625038E-03  0.124252737    
   1.41666675       1.00000000       0.00000000       0.00000000       0.00000000    
   1.58333349       0.00000000       0.00000000       0.00000000       0.00000000    
   1.58333349       2.50000004E-02  0.121872798      -2.01773387E-03  0.121889502    
   1.58333349       7.50000030E-02  0.343974292      -5.56879211E-03  0.344019353    
   1.58333349      0.125000000      0.543757558      -8.02766159E-03  0.543816805    
   1.58333349      0.175000012      0.720506549      -9.34071094E-03  0.720567107    
   1.58333349      0.224999994      0.873519897      -9.65025835E-03  0.873573184    
   1.58333349      0.275000006       1.00213933      -9.10458155E-03   1.00218070    
   1.58333349      0.324999988       1.10577774      -7.85664655E-03   1.10580564    
   1.58333349      0.375000000       1.18394160      -6.06189389E-03   1.18395710    
   1.58333349      0.425000012       1.23625052      -3.87704745E-03   1.23625660    
   1.58333349      0.475000024       1.26244593      -1.45882659E-03   1.26244676    
   1.58333349      0.524999976       1.26239848       1.03728788E-03   1.26239896    
   1.58333349      0.575000048       1.23611188       3.45588056E-03   1.23611665    
   1.58333349      0.625000000       1.18371916       5.64076612E-03   1.18373263    
   1.58333349      0.675000012       1.10548568       7.43567897E-03   1.10551071    
   1.58333349      0.725000024       1.00180018       8.68412573E-03   1.00183785    
   1.58333349      0.774999976      0.873159051       9.23027657E-03  0.873207808    
   1.58333349      0.825000048      0.720155180       8.92152451E-03  0.720210433    
   1.58333349      0.875000000      0.543452621       7.61063024E-03  0.543505907    
   1.58333349      0.925000012      0.343759060       5.16080903E-03  0.343797803    
   1.58333349      0.975000024      0.121792927       1.81750336E-03  0.121806487    
   1.58333349       1.00000000       0.00000000       0.00000000       0.00000000    
   1.75000000       0.00000000       0.00000000       0.00000000       0.00000000    
   1.75000000       2.50000004E-02  0.119427063      -2.01715715E-03  0.119444095    
   1.75000000       7.50000030E-02  0.337056398      -5.56770526E-03  0.337102383    
   1.75000000      0.125000000      0.532805443      -8.02809466E-03  0.532865942    
   1.75000000      0.175000012      0.705978751      -9.34546813E-03  0.706040621    
   1.75000000      0.224999994      0.855895102      -9.66174155E-03  0.855949640    
   1.75000000      0.275000006      0.981914043      -9.12262779E-03  0.981956422    
   1.75000000      0.324999988       1.08346272      -7.87792727E-03   1.08349133    
   1.75000000      0.375000000       1.16005588      -6.08162116E-03   1.16007173    
   1.75000000      0.425000012       1.21131730      -3.88976093E-03   1.21132350    
   1.75000000      0.475000024       1.23698926      -1.45982183E-03   1.23699009    
   1.75000000      0.524999976       1.23694205       1.04913604E-03   1.23694241    
   1.75000000      0.575000048       1.21117949       3.47835803E-03   1.21118450    
   1.75000000      0.625000000       1.15983510       5.66967111E-03   1.15984893    
   1.75000000      0.675000012       1.08317363       7.46477442E-03   1.08319926    
   1.75000000      0.725000024      0.981577873       8.70773476E-03  0.981616497    
   1.75000000      0.774999976      0.855537772       9.24569741E-03  0.855587721    
   1.75000000      0.825000048      0.705631495       8.92871805E-03  0.705688000    
   1.75000000      0.875000000      0.532504916       7.61181489E-03  0.532559335    
   1.75000000      0.925000012      0.336844742       5.15975244E-03  0.336884260    
   1.75000000      0.975000024      0.119348541       1.81692943E-03  0.119362369    
   1.75000000       1.00000000       0.00000000       0.00000000       0.00000000    
   1.91666675       0.00000000       0.00000000       0.00000000       0.00000000    
   1.91666675       2.50000004E-02  0.116975531      -2.01651687E-03  0.116992906    
   1.91666675       7.50000030E-02  0.330132902      -5.56488335E-03  0.330179811    
   1.91666675      0.125000000      0.521854103      -8.02251045E-03  0.521915793    
   1.91666675      0.175000012      0.691459179      -9.33817960E-03  0.691522241    
   1.91666675      0.224999994      0.838283300      -9.65384394E-03  0.838338912    
   1.91666675      0.275000006      0.961700916      -9.11530107E-03  0.961744130    
   1.91666675      0.324999988       1.06115317      -7.87214097E-03   1.06118238    
   1.91666675      0.375000000       1.13616526      -6.07738830E-03   1.13618147    
   1.91666675      0.425000012       1.18636942      -3.88664659E-03   1.18637574    
   1.91666675      0.475000024       1.21151137      -1.45728362E-03   1.21151233    
   1.91666675      0.524999976       1.21146584       1.05129089E-03   1.21146631    
   1.91666675      0.575000048       1.18623447       3.47961625E-03   1.18623960    
   1.91666675      0.625000000       1.13594961       5.66902012E-03   1.13596380    
   1.91666675      0.675000012       1.06087065       7.46202841E-03   1.06089687    
   1.91666675      0.725000024      0.961372197       8.70319270E-03  0.961411595    
   1.91666675      0.774999976      0.837933540       9.23969969E-03  0.837984502    
   1.91666675      0.825000048      0.691119671       8.92261788E-03  0.691177249    
   1.91666675      0.875000000      0.521560669       7.60701299E-03  0.521616161    
   1.91666675      0.925000012      0.329926699       5.15698781E-03  0.329966992    
   1.91666675      0.975000024      0.116899475       1.81612989E-03  0.116913579    
   1.91666675       1.00000000       0.00000000       0.00000000       0.00000000    
   2.08333349       0.00000000       0.00000000       0.00000000       0.00000000    
   2.08333349       2.50000004E-02  0.114520699      -2.01585121E-03  0.114538439    
   2.08333349       7.50000030E-02  0.323202729      -5.56272455E-03  0.323250592    
   2.08333349      0.125000000      0.510895848      -8.01865384E-03  0.510958791    
   2.08333349      0.175000012      0.676935077      -9.33272205E-03  0.676999450    
   2.08333349      0.224999994      0.820670128      -9.64725763E-03  0.820726812    
   2.08333349      0.275000006      0.941490054      -9.10839811E-03  0.941534102    
   2.08333349      0.324999988       1.03884745      -7.86581170E-03   1.03887725    
   2.08333349      0.375000000       1.11227930      -6.07217941E-03   1.11229587    
   2.08333349      0.425000012       1.16142535      -3.88299674E-03   1.16143179    
   2.08333349      0.475000024       1.18603778      -1.45595486E-03   1.18603873    
   2.08333349      0.524999976       1.18599367       1.05028297E-03   1.18599415    
   2.08333349      0.575000048       1.16129410       3.47675127E-03   1.16129923    
   2.08333349      0.625000000       1.11206949       5.66463452E-03   1.11208391    
   2.08333349      0.675000012       1.03857231       7.45660067E-03   1.03859901    
   2.08333349      0.725000024      0.941169560       8.69721919E-03  0.941209733    
   2.08333349      0.774999976      0.820329607       9.23380814E-03  0.820381582    
   2.08333349      0.825000048      0.676604569       8.91757943E-03  0.676663339    
   2.08333349      0.875000000      0.510610282       7.60381948E-03  0.510666907    
   2.08333349      0.925000012      0.323001981       5.15572168E-03  0.323043138    
   2.08333349      0.975000024      0.114446551       1.81586412E-03  0.114460953    
   2.08333349       1.00000000       0.00000000       0.00000000       0.00000000    
   2.25000000       0.00000000       0.00000000       0.00000000       0.00000000    
   2.25000000       2.50000004E-02  0.112064362      -2.01545563E-03  0.112082489    
   2.25000000       7.50000030E-02  0.316268504      -5.56124328E-03  0.316317379    
   2.25000000      0.125000000      0.499933064      -8.01589061E-03  0.499997318    
   2.25000000      0.175000012      0.662407160      -9.32892784E-03  0.662472844    
   2.25000000      0.224999994      0.803055048      -9.64287482E-03  0.803112924    
   2.25000000      0.275000006      0.921279430      -9.10396501E-03  0.921324432    
   2.25000000      0.324999988       1.01654470      -7.86203519E-03   1.01657510    
   2.25000000      0.375000000       1.08839798      -6.06947159E-03   1.08841491    
   2.25000000      0.425000012       1.13648725      -3.88162723E-03   1.13649380    
   2.25000000      0.475000024       1.16057098      -1.45612366E-03   1.16057193    
   2.25000000      0.524999976       1.16052771       1.04874617E-03   1.16052818    
   2.25000000      0.575000048       1.13635933       3.47384228E-03   1.13636470    
   2.25000000      0.625000000       1.08819318       5.66044357E-03   1.08820796    
   2.25000000      0.675000012       1.01627636       7.45147699E-03   1.01630366    
   2.25000000      0.725000024      0.920967162       8.69170297E-03  0.921008170    
   2.25000000      0.774999976      0.802723646       9.22860857E-03  0.802776694    
   2.25000000      0.825000048      0.662085414       8.91322270E-03  0.662145376    
   2.25000000      0.875000000      0.499655187       7.60048116E-03  0.499713004    
   2.25000000      0.925000012      0.316073239       5.15383482E-03  0.316115260    
   2.25000000      0.975000024      0.111992367       1.81538984E-03  0.112007082    
   2.25000000       1.00000000       0.00000000       0.00000000       0.00000000    
   2.41666698       0.00000000       0.00000000       0.00000000       0.00000000    
   2.41666698       2.50000004E-02  0.109606802      -2.01542885E-03  0.109625332    
   2.41666698       7.50000030E-02  0.309331775      -5.56109427E-03  0.309381753    
   2.41666698      0.125000000      0.488967538      -8.01541004E-03  0.489033222    
   2.41666698      0.175000012      0.647877216      -9.32806171E-03  0.647944391    
   2.41666698      0.224999994      0.785439014      -9.64178331E-03  0.785498202    
   2.41666698      0.275000006      0.901068926      -9.10279248E-03  0.901114941    
   2.41666698      0.324999988      0.994243205      -7.86073320E-03  0.994274259    
   2.41666698      0.375000000       1.06451917      -6.06831582E-03   1.06453645    
   2.41666698      0.425000012       1.11155272      -3.88098462E-03   1.11155951    
   2.41666698      0.475000024       1.13510704      -1.45593239E-03   1.13510799    
   2.41666698      0.524999976       1.13506436       1.04853080E-03   1.13506484    
   2.41666698      0.575000048       1.11142766       3.47320712E-03   1.11143303    
   2.41666698      0.625000000       1.06431913       5.65938931E-03   1.06433415    
   2.41666698      0.675000012      0.993981838       7.45015219E-03  0.994009733    
   2.41666698      0.725000024      0.900764823       8.69030785E-03  0.900806725    
   2.41666698      0.774999976      0.785116673       9.22718458E-03  0.785170853    