 TITLE = "TESTPLOT" 
 VARIABLES="x","y","fx","fy","magf" 
 ZONE T="1", I=          61 , J=          21
   0.00000000       0.00000000       1.00000000       0.00000000       1.00000000    
   0.00000000       2.50000004E-02   1.00000000       0.00000000       1.00000000    
   0.00000000       7.50000030E-02   1.00000000       0.00000000       1.00000000    
   0.00000000      0.125000000       1.00000000       0.00000000       1.00000000    
   0.00000000      0.175000012       1.00000000       0.00000000       1.00000000    
   0.00000000      0.224999994       1.00000000       0.00000000       1.00000000    
   0.00000000      0.275000006       1.00000000       0.00000000       1.00000000    
   0.00000000      0.324999988       1.00000000       0.00000000       1.00000000    
   0.00000000      0.375000000       1.00000000       0.00000000       1.00000000    
   0.00000000      0.425000012       1.00000000       0.00000000       1.00000000    
   0.00000000      0.475000024       1.00000000       0.00000000       1.00000000    
   0.00000000      0.524999976       1.00000000       0.00000000       1.00000000    
   0.00000000      0.575000048       1.00000000       0.00000000       1.00000000    
   0.00000000      0.625000000       1.00000000       0.00000000       1.00000000    
   0.00000000      0.675000012       1.00000000       0.00000000       1.00000000    
   0.00000000      0.725000024       1.00000000       0.00000000       1.00000000    
   0.00000000      0.774999976       1.00000000       0.00000000       1.00000000    
   0.00000000      0.825000048       1.00000000       0.00000000       1.00000000    
   0.00000000      0.875000000       1.00000000       0.00000000       1.00000000    
   0.00000000      0.925000012       1.00000000       0.00000000       1.00000000    
   0.00000000      0.975000024       1.00000000       0.00000000       1.00000000    
   0.00000000       1.00000000       1.00000000       0.00000000       1.00000000    
   8.33333358E-02   0.00000000      0.500000000       0.00000000      0.500000000    
   8.33333358E-02   2.50000004E-02  0.674333036       9.53298435E-02  0.681038082    
   8.33333358E-02   7.50000030E-02  0.870017529      0.227101147      0.899169266    
   8.33333358E-02  0.125000000      0.977147579      0.267847657       1.01319289    
   8.33333358E-02  0.175000012       1.03227353      0.259921223       1.06449401    
   8.33333358E-02  0.224999994       1.05718970      0.227984101       1.08149290    
   8.33333358E-02  0.275000006       1.06531632      0.186134994       1.08145511    
   8.33333358E-02  0.324999988       1.06501102      0.141939998       1.07442796    
   8.33333358E-02  0.375000000       1.06143093       9.89108384E-02   1.06602955    
   8.33333358E-02  0.425000012       1.05765724       5.80875911E-02   1.05925119    
   8.33333358E-02  0.475000024       1.05539632       1.90745033E-02   1.05556870    
   8.33333358E-02  0.524999976       1.05540144      -1.92619320E-02   1.05557716    
   8.33333358E-02  0.575000048       1.05767393      -5.82814217E-02   1.05927849    
   8.33333358E-02  0.625000000       1.06145918      -9.91182029E-02   1.06607687    
   8.33333358E-02  0.675000012       1.06504977     -0.142167911       1.07449651    
   8.33333358E-02  0.725000024       1.06536436     -0.186388806       1.08154607    
   8.33333358E-02  0.774999976       1.05724514     -0.228267968       1.08160698    
   8.33333358E-02  0.825000048       1.03233290     -0.260237813       1.06462908    
   8.33333358E-02  0.875000000      0.977206111     -0.268196762       1.01334167    
   8.33333358E-02  0.925000012      0.870067418     -0.227473378      0.899311662    
   8.33333358E-02  0.975000024      0.674364805      -9.55195948E-02  0.681096077    
   8.33333358E-02   1.00000000      0.500000000       0.00000000      0.500000000    
  0.250000000       0.00000000       0.00000000       0.00000000       0.00000000    
  0.250000000       2.50000004E-02  0.272643119       2.04240307E-02  0.273407042    
  0.250000000       7.50000030E-02  0.632961631       7.04005286E-02  0.636864722    
  0.250000000      0.125000000      0.866800785      0.123633549      0.875573456    
  0.250000000      0.175000012       1.01317620      0.160158783       1.02575672    
  0.250000000      0.224999994       1.09992838      0.174772725       1.11372709    
  0.250000000      0.275000006       1.14740252      0.168944925       1.15977371    
  0.250000000      0.324999988       1.17042398      0.146661401       1.17957699    
  0.250000000      0.375000000       1.17955375      0.112401590       1.18489718    
  0.250000000      0.425000012       1.18197799       7.02633560E-02   1.18406451    
  0.250000000      0.475000024       1.18213820       2.37290580E-02   1.18237627    
  0.250000000      0.524999976       1.18215013      -2.42103189E-02   1.18239808    
  0.250000000      0.575000048       1.18201518      -7.07462206E-02   1.18413043    
  0.250000000      0.625000000       1.17961454     -0.112886965       1.18500376    
  0.250000000      0.675000012       1.17050433     -0.147148997       1.17971742    
  0.250000000      0.725000024       1.14749646     -0.169432387       1.15993774    
  0.250000000      0.774999976       1.10002875     -0.175255716       1.11390197    
  0.250000000      0.825000048       1.01327574     -0.160631493       1.02592897    
  0.250000000      0.875000000      0.866891503     -0.124089554      0.875727773    
  0.250000000      0.925000012      0.633033216      -7.08298534E-02  0.636983454    
  0.250000000      0.975000024      0.272686958      -2.06303466E-02  0.273466259    
  0.250000000       1.00000000       0.00000000       0.00000000       0.00000000    
  0.416666687       0.00000000       0.00000000       0.00000000       0.00000000    
  0.416666687       2.50000004E-02  0.176089063       3.77629208E-03  0.176129550    
  0.416666687       7.50000030E-02  0.480764747       1.85200963E-02  0.481121331    
  0.416666687      0.125000000      0.727944613       4.23284918E-02  0.729174256    
  0.416666687      0.175000012      0.918192744       6.56863451E-02  0.920539320    
  0.416666687      0.224999994       1.05780602       8.19383562E-02   1.06097472    
  0.416666687      0.275000006       1.15555310       8.76932144E-02   1.15887570    
  0.416666687      0.324999988       1.22062778       8.22068602E-02   1.22339284    
  0.416666687      0.375000000       1.26139665       6.65897205E-02   1.26315308    
  0.416666687      0.425000012       1.28462875       4.31171507E-02   1.28535211    
  0.416666687      0.475000024       1.29504156       1.47227440E-02   1.29512525    
  0.416666687      0.524999976       1.29505014      -1.53414914E-02   1.29514098    
  0.416666687      0.575000048       1.28465509      -4.37301546E-02   1.28539920    
  0.416666687      0.625000000       1.26143670      -6.71909153E-02   1.26322484    
  0.416666687      0.675000012       1.22067618      -8.27903599E-02   1.22348058    
  0.416666687      0.725000024       1.15560091      -8.82531106E-02   1.15896595    
  0.416666687      0.774999976       1.05784714      -8.24698433E-02   1.06105697    
  0.416666687      0.825000048      0.918220997      -6.61862269E-02  0.920603335    
  0.416666687      0.875000000      0.727958918      -4.27950807E-02  0.729215741    
  0.416666687      0.925000012      0.480770111      -1.89505275E-02  0.481143445    
  0.416666687      0.975000024      0.176096410      -3.98179935E-03  0.176141426    
  0.416666687       1.00000000       0.00000000       0.00000000       0.00000000    
  0.583333373       0.00000000       0.00000000       0.00000000       0.00000000    
  0.583333373       2.50000004E-02  0.148278981      -1.99135960E-04  0.148279116    
  0.583333373       7.50000030E-02  0.416848689       2.67024687E-03  0.416857243    
  0.583333373      0.125000000      0.651579618       1.06722182E-02  0.651666999    
  0.583333373      0.175000012      0.849201441       2.06526294E-02  0.849452555    
  0.583333373      0.224999994       1.00931513       2.93792747E-02   1.00974262    
  0.583333373      0.275000006       1.13389301       3.44053134E-02   1.13441491    
  0.583333373      0.324999988       1.22643006       3.43856476E-02   1.22691202    
  0.583333373      0.375000000       1.29103518       2.91077159E-02   1.29136324    
  0.583333373      0.425000012       1.33158517       1.93391889E-02   1.33172560    
  0.583333373      0.475000024       1.35105503       6.58002263E-03   1.35107100    
  0.583333373      0.524999976       1.35105133      -7.22270226E-03   1.35107064    
  0.583333373      0.575000048       1.33157492      -1.99728757E-02   1.33172464    
  0.583333373      0.625000000       1.29101551      -2.97242813E-02   1.29135764    
  0.583333373      0.675000012       1.22639751      -3.49777825E-02   1.22689617    
  0.583333373      0.725000024       1.13384342      -3.49676087E-02   1.13438249    
  0.583333373      0.774999976       1.00924993      -2.99081486E-02   1.00969303    
  0.583333373      0.825000048      0.849122405      -2.11465415E-02  0.849385679    
  0.583333373      0.875000000      0.651497066      -1.11327693E-02  0.651592195    
  0.583333373      0.925000012      0.416782618      -3.09699890E-03  0.416794121    
  0.583333373      0.975000024      0.148255751      -5.29281488E-06  0.148255751    
  0.583333373       1.00000000       0.00000000       0.00000000       0.00000000    
  0.750000000       0.00000000       0.00000000       0.00000000       0.00000000    
  0.750000000       2.50000004E-02  0.137786925      -1.41910906E-03  0.137794226    
  0.750000000       7.50000030E-02  0.389145344      -2.73450417E-03  0.389154941    
  0.750000000      0.125000000      0.613613725      -1.30956760E-03  0.613615155    
  0.750000000      0.175000012      0.809005022       1.89029879E-03  0.809007227    
  0.750000000      0.224999994      0.974068940       5.53078391E-03  0.974084616    
  0.750000000      0.275000006       1.10864091       8.39017611E-03   1.10867262    
  0.750000000      0.324999988       1.21351147       9.59772989E-03   1.21354949    
  0.750000000      0.375000000       1.29009438       8.77054688E-03   1.29012418    
  0.750000000      0.425000012       1.33998609       6.03816751E-03   1.33999968    
  0.750000000      0.475000024       1.36453891       1.96873001E-03   1.36454034    
  0.750000000      0.524999976       1.36452127      -2.57768692E-03   1.36452377    
  0.750000000      0.575000048       1.33993399      -6.63898792E-03   1.33995044    
  0.750000000      0.625000000       1.29000783      -9.35576390E-03   1.29004169    
  0.750000000      0.675000012       1.21339178      -1.01610068E-02   1.21343434    
  0.750000000      0.725000024       1.10849142      -8.92690755E-03   1.10852730    
  0.750000000      0.774999976      0.973898053      -6.03860524E-03  0.973916769    
  0.750000000      0.825000048      0.808825374      -2.36899196E-03  0.808828831    
  0.750000000      0.875000000      0.613446116       8.58318468E-04  0.613446712    
  0.750000000      0.925000012      0.389019728       2.31200410E-03  0.389026582    
  0.750000000      0.975000024      0.137739569       1.21569366E-03  0.137744933    
  0.750000000       1.00000000       0.00000000       0.00000000       0.00000000    
  0.916666687       0.00000000       0.00000000       0.00000000       0.00000000    
  0.916666687       2.50000004E-02  0.132733002      -1.83094293E-03  0.132745638    
  0.916666687       7.50000030E-02  0.374954820      -4.64768894E-03  0.374983639    
  0.916666687      0.125000000      0.592530727      -5.76521084E-03  0.592558742    
  0.916666687      0.175000012      0.784099698      -5.43731777E-03  0.784118533    
  0.916666687      0.224999994      0.948577583      -4.22454905E-03  0.948586941    
  0.916666687      0.275000006       1.08530378      -2.69954931E-03   1.08530712    
  0.916666687      0.324999988       1.19407964      -1.33980811E-03   1.19408035    
  0.916666687      0.375000000       1.27508748      -4.44023055E-04   1.27508759    
  0.916666687      0.425000012       1.32872224      -9.33018746E-05   1.32872224    
  0.916666687      0.475000024       1.35539651      -1.65117468E-04   1.35539651    
  0.916666687      0.524999976       1.35536695      -3.92643153E-04   1.35536695    
  0.916666687      0.575000048       1.32863474      -4.58136259E-04   1.32863486    
  0.916666687      0.625000000       1.27494526      -9.56967415E-05   1.27494526    
  0.916666687      0.675000012       1.19388866       8.16726650E-04   1.19388890    
  0.916666687      0.725000024       1.08507395       2.19617644E-03   1.08507609    
  0.916666687      0.774999976      0.948323965       3.74207878E-03  0.948331356    
  0.916666687      0.825000048      0.783843458       4.97583114E-03  0.783859253    
  0.916666687      0.875000000      0.592300296       5.32374065E-03  0.592324197    
  0.916666687      0.925000012      0.374786735       4.22928855E-03  0.374810576    
  0.916666687      0.975000024      0.132669464       1.62843033E-03  0.132679462    
  0.916666687       1.00000000       0.00000000       0.00000000       0.00000000    
   1.08333337       0.00000000       0.00000000       0.00000000       0.00000000    
   1.08333337       2.50000004E-02  0.129504442      -1.96669321E-03  0.129519373    
   1.08333337       7.50000030E-02  0.365672797      -5.30201104E-03  0.365711242    
   1.08333337      0.125000000      0.578093350      -7.34294392E-03  0.578139961    
   1.08333337      0.175000012      0.765800059      -8.11835378E-03  0.765843093    
   1.08333337      0.224999994      0.927898884      -7.90362898E-03  0.927932560    
   1.08333337      0.275000006       1.06365991      -6.99630566E-03   1.06368291    
   1.08333337      0.324999988       1.17257309      -5.67459874E-03   1.17258680    
   1.08333337      0.375000000       1.25434566      -4.15924378E-03   1.25435257    
   1.08333337      0.425000012       1.30885720      -2.59084301E-03   1.30885983    
   1.08333337      0.475000024       1.33608794      -1.02973403E-03   1.33608830    
   1.08333337      0.524999976       1.33604956       5.22871327E-04   1.33604968    
   1.08333337      0.575000048       1.30874455       2.08766852E-03   1.30874622    
   1.08333337      0.625000000       1.25416422       3.66357481E-03   1.25416958    
   1.08333337      0.675000012       1.17233229       5.18960785E-03   1.17234373    
   1.08333337      0.725000024       1.06337523       6.52410462E-03   1.06339526    
   1.08333337      0.774999976      0.927590311       7.44514633E-03  0.927620173    
   1.08333337      0.825000048      0.765493929       7.67351314E-03  0.765532374    
   1.08333337      0.875000000      0.577822745       6.91123307E-03  0.577864051    
   1.08333337      0.925000012      0.365478307       4.88771359E-03  0.365511000    
   1.08333337      0.975000024      0.129431620       1.76506222E-03  0.129443660    
   1.08333337       1.00000000       0.00000000       0.00000000       0.00000000    
   1.25000000       0.00000000       0.00000000       0.00000000       0.00000000    
   1.25000000       2.50000004E-02  0.126864105      -2.00718874E-03  0.126879990    
   1.25000000       7.50000030E-02  0.358081192      -5.50686661E-03  0.358123541    
   1.25000000      0.125000000      0.566074371      -7.85620324E-03  0.566128910    
   1.25000000      0.175000012      0.750050783      -9.01830383E-03  0.750104964    
   1.25000000      0.224999994      0.909226775      -9.17191990E-03  0.909273028    
   1.25000000      0.275000006       1.04289150      -8.51097703E-03   1.04292619    
   1.25000000      0.324999988       1.15045476      -7.23000057E-03   1.15047741    
   1.25000000      0.375000000       1.23146582      -5.50898351E-03   1.23147821    
   1.25000000      0.425000012       1.28561318      -3.50303063E-03   1.28561795    
   1.25000000      0.475000024       1.31270909      -1.33989099E-03   1.31270981    
   1.25000000      0.524999976       1.31266558       8.73761717E-04   1.31266582    
   1.25000000      0.575000048       1.28548551       3.03909415E-03   1.28548908    
   1.25000000      0.625000000       1.23126030       5.04920119E-03   1.23127067    
   1.25000000      0.675000012       1.15018415       6.77603344E-03   1.15020406    
   1.25000000      0.725000024       1.04257417       8.06387980E-03   1.04260528    
   1.25000000      0.774999976      0.908885837       8.73211958E-03  0.908927798    
   1.25000000      0.825000048      0.749715805       8.58606957E-03  0.749764979    
   1.25000000      0.875000000      0.565780997       7.43172225E-03  0.565829813    
   1.25000000      0.925000012      0.357871801       5.09557221E-03  0.357908070    
   1.25000000      0.975000024      0.126785934       1.80619373E-03  0.126798794    
   1.25000000       1.00000000       0.00000000       0.00000000       0.00000000    
   1.41666675       0.00000000       0.00000000       0.00000000       0.00000000    
   1.41666675       2.50000004E-02  0.124390304      -2.01655645E-03  0.124406643    
   1.41666675       7.50000030E-02  0.351016462      -5.55998087E-03  0.351060480    
   1.41666675      0.125000000      0.554855525      -7.99945090E-03  0.554913163    
   1.41666675      0.175000012      0.735191286      -9.28222481E-03  0.735249937    
   1.41666675      0.224999994      0.891298175      -9.55760106E-03  0.891349435    
   1.41666675      0.275000006       1.02249312      -8.98446888E-03   1.02253258    
   1.41666675      0.324999988       1.12817693      -7.72626139E-03   1.12820339    
   1.41666675      0.375000000       1.20785856      -5.94507903E-03   1.20787311    
   1.41666675      0.425000012       1.26116717      -3.79820820E-03   1.26117289    
   1.41666675      0.475000024       1.28785884      -1.43585342E-03   1.28785968    
   1.41666675      0.524999976       1.28781271       9.98180709E-04   1.28781307    
   1.41666675      0.575000048       1.26103163       3.36175086E-03   1.26103616    
   1.41666675      0.625000000       1.20764112       5.51026687E-03   1.20765364    
   1.41666675      0.675000012       1.12789214       7.29370723E-03   1.12791574    
   1.41666675      0.725000024       1.02216005       8.55470635E-03   1.02219582    
   1.41666675      0.774999976      0.890942097       9.13055148E-03  0.890988886    
   1.41666675      0.825000048      0.734843552       8.85811448E-03  0.734896958    
   1.41666675      0.875000000      0.554552794       7.57939927E-03  0.554604590    
   1.41666675      0.925000012      0.350801528       5.15070278E-03  0.350839347    
   1.41666675      0.975000024      0.124310166       1.81609206E-03  0.124323428    
   1.41666675       1.00000000       0.00000000       0.00000000       0.00000000    
   1.58333349       0.00000000       0.00000000       0.00000000       0.00000000    
   1.58333349       2.50000004E-02  0.121951342      -2.01779627E-03  0.121968038    
   1.58333349       7.50000030E-02  0.344088197      -5.56918606E-03  0.344133258    
   1.58333349      0.125000000      0.543865502      -8.02840479E-03  0.543924749    
   1.58333349      0.175000012      0.720604897      -9.34130698E-03  0.720665455    
   1.58333349      0.224999994      0.873613477      -9.65052098E-03  0.873666823    
   1.58333349      0.275000006       1.00223136      -9.10459179E-03   1.00227273    
   1.58333349      0.324999988       1.10586882      -7.85643421E-03   1.10589671    
   1.58333349      0.375000000       1.18403220      -6.06148038E-03   1.18404770    
   1.58333349      0.425000012       1.23634005      -3.87632777E-03   1.23634613    
   1.58333349      0.475000024       1.26253533      -1.45773904E-03   1.26253617    
   1.58333349      0.524999976       1.26248825       1.03851175E-03   1.26248872    
   1.58333349      0.575000048       1.23620200       3.45706567E-03   1.23620677    
   1.58333349      0.625000000       1.18381131       5.64202201E-03   1.18382478    
   1.58333349      0.675000012       1.10557985       7.43693998E-03   1.10560489    
   1.58333349      0.725000024       1.00189447       8.68532807E-03   1.00193214    
   1.58333349      0.774999976      0.873254657       9.23153572E-03  0.873303473    
   1.58333349      0.825000048      0.720255733       8.92283674E-03  0.720310986    
   1.58333349      0.875000000      0.543562353       7.61151966E-03  0.543615639    
   1.58333349      0.925000012      0.343873829       5.16100693E-03  0.343912542    
   1.58333349      0.975000024      0.121871576       1.81746297E-03  0.121885128    
   1.58333349       1.00000000       0.00000000       0.00000000       0.00000000    
   1.75000000       0.00000000       0.00000000       0.00000000       0.00000000    
   1.75000000       2.50000004E-02  0.119512394      -2.01705587E-03  0.119529411    
   1.75000000       7.50000030E-02  0.337180734      -5.56738162E-03  0.337226689    
   1.75000000      0.125000000      0.532923460      -8.02762061E-03  0.532983899    
   1.75000000      0.175000012      0.706085801      -9.34489444E-03  0.706147611    
   1.75000000      0.224999994      0.855996490      -9.66099091E-03  0.856051028    
   1.75000000      0.275000006      0.982013583      -9.12178680E-03  0.982055962    
   1.75000000      0.324999988       1.08356082      -7.87730329E-03   1.08358955    
   1.75000000      0.375000000       1.16015315      -6.08121697E-03   1.16016912    
   1.75000000      0.425000012       1.21141315      -3.88965150E-03   1.21141934    
   1.75000000      0.475000024       1.23708487      -1.45997969E-03   1.23708570    
   1.75000000      0.524999976       1.23703814       1.04924967E-03   1.23703849    
   1.75000000      0.575000048       1.21127653       3.47879599E-03   1.21128154    
   1.75000000      0.625000000       1.15993428       5.67016844E-03   1.15994811    
   1.75000000      0.675000012       1.08327472       7.46536162E-03   1.08330047    
   1.75000000      0.725000024      0.981680751       8.70838668E-03  0.981719375    
   1.75000000      0.774999976      0.855642557       9.24620405E-03  0.855692506    
   1.75000000      0.825000048      0.705741882       8.92925076E-03  0.705798388    
   1.75000000      0.875000000      0.532625258       7.61228893E-03  0.532679677    
   1.75000000      0.925000012      0.336970389       5.15975058E-03  0.337009877    
   1.75000000      0.975000024      0.119434334       1.81679334E-03  0.119448155    
   1.75000000       1.00000000       0.00000000       0.00000000       0.00000000    
   1.91666675       0.00000000       0.00000000       0.00000000       0.00000000    
   1.91666675       2.50000004E-02  0.117067114      -2.01634876E-03  0.117084473    
   1.91666675       7.50000030E-02  0.330266774      -5.56482561E-03  0.330313653    
   1.91666675      0.125000000      0.521981061      -8.02298356E-03  0.522042692    
   1.91666675      0.175000012      0.691573977      -9.33897030E-03  0.691637039    
   1.91666675      0.224999994      0.838391542      -9.65499133E-03  0.838447094    
   1.91666675      0.275000006      0.961806953      -9.11670923E-03  0.961850166    
   1.91666675      0.324999988       1.06125712      -7.87342712E-03   1.06128633    
   1.91666675      0.375000000       1.13626814      -6.07841928E-03   1.13628435    
   1.91666675      0.425000012       1.18647051      -3.88726825E-03   1.18647683    
   1.91666675      0.475000024       1.21161234      -1.45750307E-03   1.21161318    
   1.91666675      0.524999976       1.21156645       1.05152512E-03   1.21156693    
   1.91666675      0.575000048       1.18633652       3.48051777E-03   1.18634164    
   1.91666675      0.625000000       1.13605404       5.67070954E-03   1.13606822    
   1.91666675      0.675000012       1.06097746       7.46402144E-03   1.06100368    
   1.91666675      0.725000024      0.961481690       8.70502368E-03  0.961521089    
   1.91666675      0.774999976      0.838046074       9.24133137E-03  0.838097036    
   1.91666675      0.825000048      0.691238642       8.92394595E-03  0.691296220    
   1.91666675      0.875000000      0.521690726       7.60790054E-03  0.521746218    
   1.91666675      0.925000012      0.330062270       5.15725929E-03  0.330102563    
   1.91666675      0.975000024      0.116991490       1.81609998E-03  0.117005587    
   1.91666675       1.00000000       0.00000000       0.00000000       0.00000000    
   2.08333349       0.00000000       0.00000000       0.00000000       0.00000000    
   2.08333349       2.50000004E-02  0.114617392      -2.01602117E-03  0.114635125    
   2.08333349       7.50000030E-02  0.323345006      -5.56330569E-03  0.323392868    
   2.08333349      0.125000000      0.511031151      -8.01961962E-03  0.511094093    
   2.08333349      0.175000012      0.677057624      -9.33394767E-03  0.677121937    
   2.08333349      0.224999994      0.820785463      -9.64869931E-03  0.820842147    
   2.08333349      0.275000006      0.941602111      -9.10986960E-03  0.941646159    
   2.08333349      0.324999988       1.03895760      -7.86715653E-03   1.03898740    
   2.08333349      0.375000000       1.11238766      -6.07324345E-03   1.11240423    
   2.08333349      0.425000012       1.16153216      -3.88370547E-03   1.16153872    
   2.08333349      0.475000024       1.18614388      -1.45616289E-03   1.18614471    
   2.08333349      0.524999976       1.18609905       1.05079776E-03   1.18609953    
   2.08333349      0.575000048       1.16140127       3.47786653E-03   1.16140640    
   2.08333349      0.625000000       1.11217928       5.66609111E-03   1.11219370    
   2.08333349      0.675000012       1.03868532       7.45812617E-03   1.03871214    
   2.08333349      0.725000024      0.941285849       8.69867764E-03  0.941326022    
   2.08333349      0.774999976      0.820449710       9.23520792E-03  0.820501685    
   2.08333349      0.825000048      0.676731706       8.91888328E-03  0.676790476    
   2.08333349      0.875000000      0.510749221       7.60455336E-03  0.510805786    
   2.08333349      0.925000012      0.323146611       5.15573751E-03  0.323187739    
   2.08333349      0.975000024      0.114544302       1.81576307E-03  0.114558689    
   2.08333349       1.00000000       0.00000000       0.00000000       0.00000000    
   2.25000000       0.00000000       0.00000000       0.00000000       0.00000000    
   2.25000000       2.50000004E-02  0.112165630      -2.01585493E-03  0.112183742    
   2.25000000       7.50000030E-02  0.316418529      -5.56251686E-03  0.316467434    
   2.25000000      0.125000000      0.500075817      -8.01779889E-03  0.500140071    
   2.25000000      0.175000012      0.662536979      -9.33094695E-03  0.662602663    
   2.25000000      0.224999994      0.803177476      -9.64466296E-03  0.803235412    
   2.25000000      0.275000006      0.921397984      -9.10528935E-03  0.921442986    
   2.25000000      0.324999988       1.01666081      -7.86259398E-03   1.01669121    
   2.25000000      0.375000000       1.08851218      -6.06953446E-03   1.08852911    
   2.25000000      0.425000012       1.13659990      -3.88132618E-03   1.13660657    
   2.25000000      0.475000024       1.16068244      -1.45517231E-03   1.16068339    
   2.25000000      0.524999976       1.16063869       1.04993477E-03   1.16063917    
   2.25000000      0.575000048       1.13647223       3.47516011E-03   1.13647747    
   2.25000000      0.625000000       1.08830917       5.66217024E-03   1.08832395    
   2.25000000      0.675000012       1.01639581       7.45334197E-03   1.01642311    
   2.25000000      0.725000024      0.921090066       8.69352929E-03  0.921131074    
   2.25000000      0.774999976      0.802850604       9.23053827E-03  0.802903652    
   2.25000000      0.825000048      0.662219703       8.91527906E-03  0.662279725    
   2.25000000      0.875000000      0.499801755       7.60226697E-03  0.499859571    
   2.25000000      0.925000012      0.316225648       5.15468512E-03  0.316267639    
   2.25000000      0.975000024      0.112094603       1.81551336E-03  0.112109303    
   2.25000000       1.00000000       0.00000000       0.00000000       0.00000000    
   2.41666698       0.00000000       0.00000000       0.00000000       0.00000000    
   2.41666698       2.50000004E-02  0.109713212      -2.01567588E-03  0.109731726    
   2.41666698       7.50000030E-02  0.309490025      -5.56181651E-03  0.309540004    
   2.41666698      0.125000000      0.489118099      -8.01635906E-03  0.489183784    
   2.41666698      0.175000012      0.648013830      -9.32869315E-03  0.648081005    
   2.41666698      0.224999994      0.785567701      -9.64196585E-03  0.785626888    
   2.41666698      0.275000006      0.901193261      -9.10277106E-03  0.901239216    
   2.41666698      0.324999988      0.994364440      -7.86062051E-03  0.994395554    
   2.41666698      0.375000000       1.06463838      -6.06805924E-03   1.06465566    
   2.41666698      0.425000012       1.11167026      -3.88065819E-03   1.11167705    
   2.41666698      0.475000024       1.13522410      -1.45574950E-03   1.13522506    
   2.41666698      0.524999976       1.13518178       1.04826968E-03   1.13518226    
   2.41666698      0.575000048       1.11154628       3.47270118E-03   1.11155164    
   2.41666698      0.625000000       1.06444108       5.65927522E-03   1.06445611    
   2.41666698      0.675000012      0.994106889       7.45032215E-03  0.994134784    
   2.41666698      0.725000024      0.900893629       8.69062822E-03  0.900935531    
   2.41666698      0.774999976      0.785249412       9.22802091E-03  0.785303652    