 TITLE = "TESTPLOT" 
 VARIABLES="x","y","fx","fy","magf" 
 ZONE T="1", I=          61 , J=          21
   0.00000000       0.00000000       1.00000000       0.00000000       1.00000000    
   0.00000000       2.50000004E-02   1.00000000       0.00000000       1.00000000    
   0.00000000       7.50000030E-02   1.00000000       0.00000000       1.00000000    
   0.00000000      0.125000000       1.00000000       0.00000000       1.00000000    
   0.00000000      0.175000012       1.00000000       0.00000000       1.00000000    
   0.00000000      0.224999994       1.00000000       0.00000000       1.00000000    
   0.00000000      0.275000006       1.00000000       0.00000000       1.00000000    
   0.00000000      0.324999988       1.00000000       0.00000000       1.00000000    
   0.00000000      0.375000000       1.00000000       0.00000000       1.00000000    
   0.00000000      0.425000012       1.00000000       0.00000000       1.00000000    
   0.00000000      0.475000024       1.00000000       0.00000000       1.00000000    
   0.00000000      0.524999976       1.00000000       0.00000000       1.00000000    
   0.00000000      0.575000048       1.00000000       0.00000000       1.00000000    
   0.00000000      0.625000000       1.00000000       0.00000000       1.00000000    
   0.00000000      0.675000012       1.00000000       0.00000000       1.00000000    
   0.00000000      0.725000024       1.00000000       0.00000000       1.00000000    
   0.00000000      0.774999976       1.00000000       0.00000000       1.00000000    
   0.00000000      0.825000048       1.00000000       0.00000000       1.00000000    
   0.00000000      0.875000000       1.00000000       0.00000000       1.00000000    
   0.00000000      0.925000012       1.00000000       0.00000000       1.00000000    
   0.00000000      0.975000024       1.00000000       0.00000000       1.00000000    
   0.00000000       1.00000000       1.00000000       0.00000000       1.00000000    
   8.33333358E-02   0.00000000      0.500000000       0.00000000      0.500000000    
   8.33333358E-02   2.50000004E-02  0.674362063       9.53559801E-02  0.681070447    
   8.33333358E-02   7.50000030E-02  0.870114207      0.227162004      0.899278224    
   8.33333358E-02  0.125000000      0.977277756      0.267915666       1.01333642    
   8.33333358E-02  0.175000012       1.03241301      0.259983629       1.06464458    
   8.33333358E-02  0.224999994       1.05733013      0.228037983       1.08164155    
   8.33333358E-02  0.275000006       1.06545544      0.186180562       1.08159995    
   8.33333358E-02  0.324999988       1.06514955      0.141977489       1.07457018    
   8.33333358E-02  0.375000000       1.06157160       9.89397094E-02   1.06617236    
   8.33333358E-02  0.425000012       1.05780005       5.81068918E-02   1.05939484    
   8.33333358E-02  0.475000024       1.05554056       1.90832708E-02   1.05571306    
   8.33333358E-02  0.524999976       1.05554652      -1.92642733E-02   1.05572224    
   8.33333358E-02  0.575000048       1.05781674      -5.82948215E-02   1.05942178    
   8.33333358E-02  0.625000000       1.06159949      -9.91415009E-02   1.06621885    
   8.33333358E-02  0.675000012       1.06518805     -0.142199561       1.07463777    
   8.33333358E-02  0.725000024       1.06550300     -0.186428711       1.08168960    
   8.33333358E-02  0.774999976       1.05738521     -0.228316933       1.08175421    
   8.33333358E-02  0.825000048       1.03247237     -0.260295838       1.06477845    
   8.33333358E-02  0.875000000      0.977335691     -0.268260360       1.01348341    
   8.33333358E-02  0.925000012      0.870163918     -0.227529272      0.899419129    
   8.33333358E-02  0.975000024      0.674393594      -9.55431312E-02  0.681127906    
   8.33333358E-02   1.00000000      0.500000000       0.00000000      0.500000000    
  0.250000000       0.00000000       0.00000000       0.00000000       0.00000000    
  0.250000000       2.50000004E-02  0.272766709       2.04391722E-02  0.273531407    
  0.250000000       7.50000030E-02  0.633369327       7.04045221E-02  0.637270331    
  0.250000000      0.125000000      0.867357016      0.123560444      0.876113772    
  0.250000000      0.175000012       1.01376319      0.159980386       1.02630866    
  0.250000000      0.224999994       1.10047507      0.174497664       1.11422384    
  0.250000000      0.275000006       1.14786899      0.168609068       1.16018629    
  0.250000000      0.324999988       1.17079377      0.146316916       1.17990112    
  0.250000000      0.375000000       1.17983460      0.112104803       1.18514860    
  0.250000000      0.425000012       1.18219101       7.00637996E-02   1.18426538    
  0.250000000      0.475000024       1.18231511       2.36601122E-02   1.18255186    
  0.250000000      0.524999976       1.18232846      -2.41370033E-02   1.18257475    
  0.250000000      0.575000048       1.18222833      -7.05424100E-02   1.18433106    
  0.250000000      0.625000000       1.17989516     -0.112585947       1.18525445    
  0.250000000      0.675000012       1.17087340     -0.146799982       1.18004012    
  0.250000000      0.725000024       1.14796150     -0.169091642       1.16034806    
  0.250000000      0.774999976       1.10057473     -0.174975395       1.11439717    
  0.250000000      0.825000048       1.01386237     -0.160447836       1.02647960    
  0.250000000      0.875000000      0.867445767     -0.124011278      0.876265347    
  0.250000000      0.925000012      0.633439839      -7.08286762E-02  0.637387455    
  0.250000000      0.975000024      0.272809833      -2.06429437E-02  0.273589730    
  0.250000000       1.00000000       0.00000000       0.00000000       0.00000000    
  0.416666687       0.00000000       0.00000000       0.00000000       0.00000000    
  0.416666687       2.50000004E-02  0.176440701       3.76196438E-03  0.176480800    
  0.416666687       7.50000030E-02  0.481837213       1.83935948E-02  0.482188165    
  0.416666687      0.125000000      0.729396164       4.19617444E-02  0.730602205    
  0.416666687      0.175000012      0.919689238       6.50344193E-02  0.921985805    
  0.416666687      0.224999994       1.05909467       8.10384303E-02   1.06219053    
  0.416666687      0.275000006       1.15646505       8.66483301E-02   1.15970659    
  0.416666687      0.324999988       1.22108507       8.11607912E-02   1.22377932    
  0.416666687      0.375000000       1.26141334       6.56986684E-02   1.26312315    
  0.416666687      0.425000012       1.28429985       4.25203815E-02   1.28500354    
  0.416666687      0.475000024       1.29452467       1.45154949E-02   1.29460597    
  0.416666687      0.524999976       1.29453540      -1.51253510E-02   1.29462373    
  0.416666687      0.575000048       1.28432727      -4.31248844E-02   1.28505111    
  0.416666687      0.625000000       1.26145411      -6.62920401E-02   1.26319480    
  0.416666687      0.675000012       1.22113323      -8.17367584E-02   1.22386563    
  0.416666687      0.725000024       1.15651250      -8.72011483E-02   1.15979528    
  0.416666687      0.774999976       1.05913472      -8.15632343E-02   1.06227064    
  0.416666687      0.825000048      0.919716597      -6.55278042E-02  0.922048032    
  0.416666687      0.875000000      0.729409456      -4.24224548E-02  0.730642021    
  0.416666687      0.925000012      0.481841594      -1.88186206E-02  0.482208937    
  0.416666687      0.975000024      0.176447317      -3.96482833E-03  0.176491857    
  0.416666687       1.00000000       0.00000000       0.00000000       0.00000000    
  0.583333373       0.00000000       0.00000000       0.00000000       0.00000000    
  0.583333373       2.50000004E-02  0.149040490      -2.39350600E-04  0.149040684    
  0.583333373       7.50000030E-02  0.419018447       2.43261782E-03  0.419025511    
  0.583333373      0.125000000      0.654476523       1.00607080E-02  0.654553831    
  0.583333373      0.175000012      0.852133274       1.96115635E-02  0.852358937    
  0.583333373      0.224999994       1.01171756       2.79709548E-02   1.01210415    
  0.583333373      0.275000006       1.13537085       3.27867493E-02   1.13584411    
  0.583333373      0.324999988       1.22679257       3.27751637E-02   1.22723031    
  0.583333373      0.375000000       1.29030812       2.77419463E-02   1.29060626    
  0.583333373      0.425000012       1.32999897       1.84277128E-02   1.33012664    
  0.583333373      0.475000024       1.34899819       6.26653805E-03   1.34901273    
  0.583333373      0.524999976       1.34899759      -6.88756304E-03   1.34901524    
  0.583333373      0.575000048       1.32999277      -1.90406218E-02   1.33012903    
  0.583333373      0.625000000       1.29029322      -2.83393823E-02   1.29060435    
  0.583333373      0.675000012       1.22676468      -3.33507210E-02   1.22721791    
  0.583333373      0.725000024       1.13532698      -3.33347619E-02   1.13581622    
  0.583333373      0.774999976       1.01165605      -2.84876898E-02   1.01205707    
  0.583333373      0.825000048      0.852057040      -2.00959742E-02  0.852293968    
  0.583333373      0.875000000      0.654396474      -1.05139278E-02  0.654480934    
  0.583333373      0.925000012      0.418953598      -2.85333954E-03  0.418963313    
  0.583333373      0.975000024      0.149017528       3.77055949E-05  0.149017528    
  0.583333373       1.00000000       0.00000000       0.00000000       0.00000000    
  0.750000000       0.00000000       0.00000000       0.00000000       0.00000000    
  0.750000000       2.50000004E-02  0.139056638      -1.46339973E-03  0.139064342    
  0.750000000       7.50000030E-02  0.392632842      -2.98759784E-03  0.392644197    
  0.750000000      0.125000000      0.618231177      -1.95264025E-03  0.618234277    
  0.750000000      0.175000012      0.813634157       7.99462898E-04  0.813634574    
  0.750000000      0.224999994      0.977772176       4.05561551E-03  0.977780581    
  0.750000000      0.275000006       1.11074626       6.69406122E-03   1.11076641    
  0.750000000      0.324999988       1.21368504       7.90887792E-03   1.21371078    
  0.750000000      0.375000000       1.28837574       7.33775273E-03   1.28839660    
  0.750000000      0.425000012       1.33677268       5.08334581E-03   1.33678234    
  0.750000000      0.475000024       1.36050487       1.64427981E-03   1.36050582    
  0.750000000      0.524999976       1.36049092      -2.21776171E-03   1.36049271    
  0.750000000      0.575000048       1.33672976      -5.64998714E-03   1.33674169    
  0.750000000      0.625000000       1.28830266      -7.89132155E-03   1.28832686    
  0.750000000      0.675000012       1.21358085      -8.44405312E-03   1.21361017    
  0.750000000      0.725000024       1.11061406      -7.20730051E-03   1.11063743    
  0.750000000      0.774999976      0.977617621      -4.54470795E-03  0.977628231    
  0.750000000      0.825000048      0.813469172      -1.26391649E-03  0.813470125    
  0.750000000      0.875000000      0.618074536       1.51138718E-03  0.618076384    
  0.750000000      0.925000012      0.392513990       2.57207570E-03  0.392522424    
  0.750000000      0.975000024      0.139012054       1.26297679E-03  0.139017791    
  0.750000000       1.00000000       0.00000000       0.00000000       0.00000000    
  0.916666687       0.00000000       0.00000000       0.00000000       0.00000000    
  0.916666687       2.50000004E-02  0.134472206      -1.85956748E-03  0.134485066    
  0.916666687       7.50000030E-02  0.379654855      -4.83105704E-03  0.379685581    
  0.916666687      0.125000000      0.598732591      -6.25132117E-03  0.598765194    
  0.916666687      0.175000012      0.790299952      -6.27642870E-03  0.790324867    
  0.916666687      0.224999994      0.953497410      -5.37009817E-03  0.953512549    
  0.916666687      0.275000006       1.08801365      -4.02490236E-03   1.08802116    
  0.916666687      0.324999988       1.19410765      -2.66508944E-03   1.19411063    
  0.916666687      0.375000000       1.27248025      -1.57057471E-03   1.27248120    
  0.916666687      0.425000012       1.32402837      -8.42656766E-04   1.32402861    
  0.916666687      0.475000024       1.34955502      -4.14002454E-04   1.34955502    
  0.916666687      0.524999976       1.34953117      -9.76295996E-05   1.34953117    
  0.916666687      0.575000048       1.32395804       3.35464516E-04   1.32395804    
  0.916666687      0.625000000       1.27236438       1.07135624E-03   1.27236485    
  0.916666687      0.675000012       1.19394839       2.17717956E-03   1.19395041    
  0.916666687      0.725000024       1.08781815       3.55062960E-03   1.08782399    
  0.916666687      0.774999976      0.953277230       4.91082110E-03  0.953289866    
  0.916666687      0.825000048      0.790073872       5.83293196E-03  0.790095389    
  0.916666687      0.875000000      0.598525286       5.82297472E-03  0.598553598    
  0.916666687      0.925000012      0.379500747       4.42161318E-03  0.379526496    
  0.916666687      0.975000024      0.134413570       1.66069227E-03  0.134423837    
  0.916666687       1.00000000       0.00000000       0.00000000       0.00000000    
   1.08333337       0.00000000       0.00000000       0.00000000       0.00000000    
   1.08333337       2.50000004E-02  0.131585479      -1.97413005E-03  0.131600276    
   1.08333337       7.50000030E-02  0.371272206      -5.38910273E-03  0.371311337    
   1.08333337      0.125000000      0.585478544      -7.60922441E-03  0.585528016    
   1.08333337      0.175000012      0.773188472      -8.60055350E-03  0.773236275    
   1.08333337      0.224999994      0.933765292      -8.57723504E-03  0.933804691    
   1.08333337      0.275000006       1.06688666      -7.78634148E-03   1.06691504    
   1.08333337      0.324999988       1.17258179      -6.47125207E-03   1.17259967    
   1.08333337      0.375000000       1.25118232      -4.83924989E-03   1.25119162    
   1.08333337      0.425000012       1.30317473      -3.04216659E-03   1.30317831    
   1.08333337      0.475000024       1.32901859      -1.17459882E-03   1.32901919    
   1.08333337      0.524999976       1.32898951       7.11859786E-04   1.32898962    
   1.08333337      0.575000048       1.30308867       2.58159870E-03   1.30309129    
   1.08333337      0.625000000       1.25104117       4.38300800E-03   1.25104880    
   1.08333337      0.675000012       1.17239070       6.02112524E-03   1.17240620    
   1.08333337      0.725000024       1.06665516       7.34315999E-03   1.06668043    
   1.08333337      0.774999976      0.933508635       8.14146735E-03  0.933544159    
   1.08333337      0.825000048      0.772928417       8.17268435E-03  0.772971630    
   1.08333337      0.875000000      0.585243881       7.18960818E-03  0.585288048    
   1.08333337      0.925000012      0.371099710       4.98301629E-03  0.371133149    
   1.08333337      0.975000024      0.131519735       1.77576602E-03  0.131531730    
   1.08333337       1.00000000       0.00000000       0.00000000       0.00000000    
   1.25000000       0.00000000       0.00000000       0.00000000       0.00000000    
   1.25000000       2.50000004E-02  0.129151076      -1.99695863E-03  0.129166514    
   1.25000000       7.50000030E-02  0.364244044      -5.51386783E-03  0.364285767    
   1.25000000      0.125000000      0.574207902      -7.93857872E-03  0.574262798    
   1.25000000      0.175000012      0.758204401      -9.19970497E-03  0.758260250    
   1.25000000      0.224999994      0.915734470      -9.44486167E-03  0.915783226    
   1.25000000      0.275000006       1.04652691      -8.84337444E-03   1.04656422    
   1.25000000      0.324999988       1.15057492      -7.57253170E-03   1.15059984    
   1.25000000      0.375000000       1.22811031      -5.80449589E-03   1.22812402    
   1.25000000      0.425000012       1.27949095      -3.69841070E-03   1.27949631    
   1.25000000      0.475000024       1.30506253      -1.39787514E-03   1.30506325    
   1.25000000      0.524999976       1.30503118       9.66318301E-04   1.30503154    
   1.25000000      0.575000048       1.27939773       3.26787634E-03   1.27940190    
   1.25000000      0.625000000       1.22795677       5.37561905E-03   1.22796857    
   1.25000000      0.675000012       1.15036857       7.14607071E-03   1.15039074    
   1.25000000      0.725000024       1.04627919       8.41974467E-03   1.04631305    
   1.25000000      0.774999976      0.915462732       9.02393181E-03  0.915507197    
   1.25000000      0.825000048      0.757931232       8.78158212E-03  0.757982075    
   1.25000000      0.875000000      0.573963284       7.52403028E-03  0.574012637    
   1.25000000      0.925000012      0.364065588       5.10972925E-03  0.364101440    
   1.25000000      0.975000024      0.129083276       1.79905863E-03  0.129095808    
   1.25000000       1.00000000       0.00000000       0.00000000       0.00000000    
   1.41666675       0.00000000       0.00000000       0.00000000       0.00000000    
   1.41666675       2.50000004E-02  0.126786530      -1.99637795E-03  0.126802251    
   1.41666675       7.50000030E-02  0.357497722      -5.51948603E-03  0.357540309    
   1.41666675      0.125000000      0.563413680      -7.96965044E-03  0.563470006    
   1.41666675      0.175000012      0.743789315      -9.27698240E-03  0.743847191    
   1.41666675      0.224999994      0.898209095      -9.57853347E-03  0.898260176    
   1.41666675      0.275000006       1.02644539      -9.02589876E-03   1.02648509    
   1.41666675      0.324999988       1.12849951      -7.77745945E-03   1.12852633    
   1.41666675      0.375000000       1.20458412      -5.99251874E-03   1.20459902    
   1.41666675      0.425000012       1.25502563      -3.82847106E-03   1.25503147    
   1.41666675      0.475000024       1.28013694      -1.43930141E-03   1.28013778    
   1.41666675      0.524999976       1.28010488       1.02464983E-03   1.28010535    
   1.41666675      0.575000048       1.25493002       3.41400481E-03   1.25493467    
   1.41666675      0.625000000       1.20442712       5.57794981E-03   1.20444000    
   1.41666675      0.675000012       1.12828922       7.36280624E-03   1.12831330    
   1.41666675      0.725000024       1.02619410       8.61149281E-03   1.02623022    
   1.41666675      0.774999976      0.897934437       9.16446466E-03  0.897981226    
   1.41666675      0.825000048      0.743514299       8.86355899E-03  0.743567109    
   1.41666675      0.875000000      0.563168168       7.55793974E-03  0.563218892    
   1.41666675      0.925000012      0.357319236       5.11647575E-03  0.357355863    
   1.41666675      0.975000024      0.126718864       1.79860648E-03  0.126731634    
   1.41666675       1.00000000       0.00000000       0.00000000       0.00000000    
   1.58333349       0.00000000       0.00000000       0.00000000       0.00000000    
   1.58333349       2.50000004E-02  0.124401510      -1.99294114E-03  0.124417476    
   1.58333349       7.50000030E-02  0.350745231      -5.50590130E-03  0.350788444    
   1.58333349      0.125000000      0.552656770      -7.94397481E-03  0.552713871    
   1.58333349      0.175000012      0.729454041      -9.24417749E-03  0.729512632    
   1.58333349      0.224999994      0.880779564      -9.54595394E-03  0.880831301    
   1.58333349      0.275000006       1.00643730      -8.99959542E-03   1.00647759    
   1.58333349      0.324999988       1.10644007      -7.75996828E-03   1.10646725    
   1.58333349      0.375000000       1.18099725      -5.98287489E-03   1.18101239    
   1.58333349      0.425000012       1.23042858      -3.82349105E-03   1.23043454    
   1.58333349      0.475000024       1.25503778      -1.43569929E-03   1.25503862    
   1.58333349      0.524999976       1.25500607       1.02799840E-03   1.25500643    
   1.58333349      0.575000048       1.23033404       3.41542950E-03   1.23033881    
   1.58333349      0.625000000       1.18084180       5.57394326E-03   1.18085504    
   1.58333349      0.675000012       1.10623169       7.35005597E-03   1.10625613    
   1.58333349      0.725000024       1.00618923       8.58891476E-03   1.00622582    
   1.58333349      0.774999976      0.880508602       9.13463533E-03  0.880555987    
   1.58333349      0.825000048      0.729182899       8.83251987E-03  0.729236424    
   1.58333349      0.875000000      0.552414894       7.53312651E-03  0.552466273    
   1.58333349      0.925000012      0.350569785       5.10304514E-03  0.350606918    
   1.58333349      0.975000024      0.124335237       1.79509376E-03  0.124348193    
   1.58333349       1.00000000       0.00000000       0.00000000       0.00000000    
   1.75000000       0.00000000       0.00000000       0.00000000       0.00000000    
   1.75000000       2.50000004E-02  0.121990368      -1.99068128E-03  0.122006610    
   1.75000000       7.50000030E-02  0.343944013      -5.49614755E-03  0.343987912    
   1.75000000      0.125000000      0.541852593      -7.92306568E-03  0.541910470    
   1.75000000      0.175000012      0.715087533      -9.21264291E-03  0.715146840    
   1.75000000      0.224999994      0.863339424      -9.50715505E-03  0.863391757    
   1.75000000      0.275000006      0.986435771      -8.95833038E-03  0.986476421    
   1.75000000      0.324999988       1.08439636      -7.72143994E-03   1.08442390    
   1.75000000      0.375000000       1.15742922      -5.95163740E-03   1.15744448    
   1.75000000      0.425000012       1.20584846      -3.80298076E-03   1.20585442    
   1.75000000      0.475000024       1.22995353      -1.42799888E-03   1.22995436    
   1.75000000      0.524999976       1.22992289       1.02215412E-03   1.22992337    
   1.75000000      0.575000048       1.20575619       3.39666894E-03   1.20576096    
   1.75000000      0.625000000       1.15727687       5.54437516E-03   1.15729022    
   1.75000000      0.675000012       1.08419251       7.31300749E-03   1.08421719    
   1.75000000      0.725000024      0.986192942       8.54869466E-03  0.986229956    
   1.75000000      0.774999976      0.863074303       9.09626205E-03  0.863122225    
   1.75000000      0.825000048      0.714822650       8.80094990E-03  0.714876831    
   1.75000000      0.875000000      0.541616619       7.51214242E-03  0.541668713    
   1.75000000      0.925000012      0.343773425       5.09344926E-03  0.343811154    
   1.75000000      0.975000024      0.121926367       1.79297524E-03  0.121939547    
   1.75000000       1.00000000       0.00000000       0.00000000       0.00000000    
   1.91666675       0.00000000       0.00000000       0.00000000       0.00000000    
   1.91666675       2.50000004E-02  0.119564816      -1.99036975E-03  0.119581386    
   1.91666675       7.50000030E-02  0.337109387      -5.49303228E-03  0.337154150    
   1.91666675      0.125000000      0.531009078      -7.91406631E-03  0.531068087    
   1.91666675      0.175000012      0.700686336      -9.19718202E-03  0.700746715    
   1.91666675      0.224999994      0.845876038      -9.48648248E-03  0.845929205    
   1.91666675      0.275000006      0.966425478      -8.93485919E-03  0.966466784    
   1.91666675      0.324999988       1.06235790      -7.69826584E-03   1.06238580    
   1.91666675      0.375000000       1.13387847      -5.93230873E-03   1.13389397    
   1.91666675      0.425000012       1.18129420      -3.79035203E-03   1.18130028    
   1.91666675      0.475000024       1.20489931      -1.42348965E-03   1.20490015    
   1.91666675      0.524999976       1.20486975       1.01782475E-03   1.20487022    
   1.91666675      0.575000048       1.18120456       3.38399084E-03   1.18120944    
   1.91666675      0.625000000       1.13372982       5.52522577E-03   1.13374329    
   1.91666675      0.675000012       1.06215954       7.29014911E-03   1.06218457    
   1.91666675      0.725000024      0.966188669       8.52523558E-03  0.966226280    
   1.91666675      0.774999976      0.845617294       9.07531194E-03  0.845665991    
   1.91666675      0.825000048      0.700428128       8.78521893E-03  0.700483263    
   1.91666675      0.875000000      0.530779183       7.50308484E-03  0.530832231    
   1.91666675      0.925000012      0.336943209       5.09029068E-03  0.336981654    
   1.91666675      0.975000024      0.119502366       1.79259398E-03  0.119515806    
   1.91666675       1.00000000       0.00000000       0.00000000       0.00000000    
   2.08333349       0.00000000       0.00000000       0.00000000       0.00000000    
   2.08333349       2.50000004E-02  0.117132083      -1.99105614E-03  0.117149003    
   2.08333349       7.50000030E-02  0.330255657      -5.49354311E-03  0.330301344    
   2.08333349      0.125000000      0.520141721      -7.91216921E-03  0.520201921    
   2.08333349      0.175000012      0.686262369      -9.19207372E-03  0.686323941    
   2.08333349      0.224999994      0.828394651      -9.47883725E-03  0.828448892    
   2.08333349      0.275000006      0.946404576      -8.92597530E-03  0.946446657    
   2.08333349      0.324999988       1.04031718      -7.68940011E-03   1.04034555    
   2.08333349      0.375000000       1.11033297      -5.92480972E-03   1.11034882    
   2.08333349      0.425000012       1.15675092      -3.78542859E-03   1.15675712    
   2.08333349      0.475000024       1.17985916      -1.42213400E-03   1.17986000    
   2.08333349      0.524999976       1.17983031       1.01529679E-03   1.17983079    
   2.08333349      0.575000048       1.15666342       3.37806903E-03   1.15666831    
   2.08333349      0.625000000       1.11018777       5.51691279E-03   1.11020148    
   2.08333349      0.675000012       1.04012370       7.28045404E-03   1.04014921    
   2.08333349      0.725000024      0.946173668       8.51559080E-03  0.946211994    
   2.08333349      0.774999976      0.828142047       9.06738173E-03  0.828191698    
   2.08333349      0.825000048      0.686010182       8.78011435E-03  0.686066389    
   2.08333349      0.875000000      0.519917250       7.50091299E-03  0.519971371    
   2.08333349      0.925000012      0.330093145       5.09025715E-03  0.330132395    
   2.08333349      0.975000024      0.117070757       1.79299770E-03  0.117084488    
   2.08333349       1.00000000       0.00000000       0.00000000       0.00000000    
   2.25000000       0.00000000       0.00000000       0.00000000       0.00000000    
   2.25000000       2.50000004E-02  0.114694789      -1.99183146E-03  0.114712082    
   2.25000000       7.50000030E-02  0.323389709      -5.49494615E-03  0.323436379    
   2.25000000      0.125000000      0.509258986      -7.91279227E-03  0.509320498    
   2.25000000      0.175000012      0.671822906      -9.19139758E-03  0.671885788    
   2.25000000      0.224999994      0.810899377      -9.47689451E-03  0.810954750    
   2.25000000      0.275000006      0.926372647      -8.92333593E-03  0.926415622    
   2.25000000      0.324999988       1.01826882      -7.68692093E-03   1.01829791    
   2.25000000      0.375000000       1.08678246      -5.92272356E-03   1.08679855    
   2.25000000      0.425000012       1.13220525      -3.78396898E-03   1.13221157    
   2.25000000      0.475000024       1.15481830      -1.42180361E-03   1.15481913    
   2.25000000      0.524999976       1.15479016       1.01451436E-03   1.15479064    
   2.25000000      0.575000048       1.13211966       3.37623479E-03   1.13212466    
   2.25000000      0.625000000       1.08664083       5.51393721E-03   1.08665478    
   2.25000000      0.675000012       1.01807952       7.27686752E-03   1.01810551    
   2.25000000      0.725000024      0.926146984       8.51227064E-03  0.926186085    
   2.25000000      0.774999976      0.810652733       9.06492583E-03  0.810703397    
   2.25000000      0.825000048      0.671576440       8.77888594E-03  0.671633840    
   2.25000000      0.875000000      0.509039640       7.50099774E-03  0.509094894    
   2.25000000      0.925000012      0.323230982       5.09118056E-03  0.323271066    
   2.25000000      0.975000024      0.114634991       1.79356220E-03  0.114649020    
   2.25000000       1.00000000       0.00000000       0.00000000       0.00000000    
   2.41666698       0.00000000       0.00000000       0.00000000       0.00000000    
   2.41666698       2.50000004E-02  0.112254880      -1.99253461E-03  0.112272568    
   2.41666698       7.50000030E-02  0.316514611      -5.49656991E-03  0.316562325    
   2.41666698      0.125000000      0.498364031      -7.91462697E-03  0.498426884    
   2.41666698      0.175000012      0.657370687      -9.19319689E-03  0.657434940    
   2.41666698      0.224999994      0.793392301      -9.47851688E-03  0.793448925    
   2.41666698      0.275000006      0.906329513      -8.92460812E-03  0.906373441    
   2.41666698      0.324999988      0.996210217      -7.68781360E-03  0.996239901    
   2.41666698      0.375000000       1.06322217      -5.92329074E-03   1.06323862    
   2.41666698      0.425000012       1.10765088      -3.78438598E-03   1.10765731    
   2.41666698      0.475000024       1.12976909      -1.42226194E-03   1.12976992    
   2.41666698      0.524999976       1.12974167       1.01410621E-03   1.12974215    
   2.41666698      0.575000048       1.10756755       3.37596494E-03   1.10757267    
   2.41666698      0.625000000       1.06308460       5.51390043E-03   1.06309891    
   2.41666698      0.675000012      0.996025443       7.27722002E-03  0.996052027    
   2.41666698      0.725000024      0.906109214       8.51276331E-03  0.906149209    
   2.41666698      0.774999976      0.793151677       9.06559266E-03  0.793203473    