 TITLE = "TESTPLOT" 
 VARIABLES="x","y","fx","fy","magf" 
 ZONE T="1", I=          61 , J=          21
   0.00000000       0.00000000       1.00000000       0.00000000       1.00000000    
   0.00000000       2.50000004E-02   1.00000000       0.00000000       1.00000000    
   0.00000000       7.50000030E-02   1.00000000       0.00000000       1.00000000    
   0.00000000      0.125000000       1.00000000       0.00000000       1.00000000    
   0.00000000      0.175000012       1.00000000       0.00000000       1.00000000    
   0.00000000      0.224999994       1.00000000       0.00000000       1.00000000    
   0.00000000      0.275000006       1.00000000       0.00000000       1.00000000    
   0.00000000      0.324999988       1.00000000       0.00000000       1.00000000    
   0.00000000      0.375000000       1.00000000       0.00000000       1.00000000    
   0.00000000      0.425000012       1.00000000       0.00000000       1.00000000    
   0.00000000      0.475000024       1.00000000       0.00000000       1.00000000    
   0.00000000      0.524999976       1.00000000       0.00000000       1.00000000    
   0.00000000      0.575000048       1.00000000       0.00000000       1.00000000    
   0.00000000      0.625000000       1.00000000       0.00000000       1.00000000    
   0.00000000      0.675000012       1.00000000       0.00000000       1.00000000    
   0.00000000      0.725000024       1.00000000       0.00000000       1.00000000    
   0.00000000      0.774999976       1.00000000       0.00000000       1.00000000    
   0.00000000      0.825000048       1.00000000       0.00000000       1.00000000    
   0.00000000      0.875000000       1.00000000       0.00000000       1.00000000    
   0.00000000      0.925000012       1.00000000       0.00000000       1.00000000    
   0.00000000      0.975000024       1.00000000       0.00000000       1.00000000    
   0.00000000       1.00000000       1.00000000       0.00000000       1.00000000    
   8.33333358E-02   0.00000000      0.500000000       0.00000000      0.500000000    
   8.33333358E-02   2.50000004E-02  0.674554169       9.51629654E-02  0.681233704    
   8.33333358E-02   7.50000030E-02  0.871307790      0.226271987      0.900209010    
   8.33333358E-02  0.125000000      0.979161859      0.265810788       1.01460004    
   8.33333358E-02  0.175000012       1.03423822      0.256474763       1.06556463    
   8.33333358E-02  0.224999994       1.05838013      0.223375276       1.08169544    
   8.33333358E-02  0.275000006       1.06531084      0.180954695       1.08057010    
   8.33333358E-02  0.324999988       1.06373644      0.136927441       1.07251310    
   8.33333358E-02  0.375000000       1.05907583       9.47707742E-02   1.06330764    
   8.33333358E-02  0.425000012       1.05454874       5.53703606E-02   1.05600142    
   8.33333358E-02  0.475000024       1.05190802       1.81202572E-02   1.05206406    
   8.33333358E-02  0.524999976       1.05191302      -1.83392186E-02   1.05207288    
   8.33333358E-02  0.575000048       1.05456424      -5.55955991E-02   1.05602872    
   8.33333358E-02  0.625000000       1.05910194      -9.50085297E-02   1.06335485    
   8.33333358E-02  0.675000012       1.06377268     -0.137183771       1.07258177    
   8.33333358E-02  0.725000024       1.06535649     -0.181235135       1.08066213    
   8.33333358E-02  0.774999976       1.05843258     -0.223684371       1.08181059    
   8.33333358E-02  0.825000048       1.03429437     -0.256815135       1.06570113    
   8.33333358E-02  0.875000000      0.979216576     -0.266181767       1.01475012    
   8.33333358E-02  0.925000012      0.871355116     -0.226663396      0.900353312    
   8.33333358E-02  0.975000024      0.674585581      -9.53615606E-02  0.681292534    
   8.33333358E-02   1.00000000      0.500000000       0.00000000      0.500000000    
  0.250000000       0.00000000       0.00000000       0.00000000       0.00000000    
  0.250000000       2.50000004E-02  0.275578678       1.95751525E-02  0.276273042    
  0.250000000       7.50000030E-02  0.641962290       6.66682944E-02  0.645414770    
  0.250000000      0.125000000      0.879210770      0.115244195      0.886731505    
  0.250000000      0.175000012       1.02507353      0.146647930       1.03551018    
  0.250000000      0.224999994       1.10768223      0.157042488       1.11875927    
  0.250000000      0.275000006       1.14865899      0.149005622       1.15828335    
  0.250000000      0.324999988       1.16443205      0.127158090       1.17135441    
  0.250000000      0.375000000       1.16699886       9.60677862E-02   1.17094636    
  0.250000000      0.425000012       1.16456795       5.94241470E-02   1.16608310    
  0.250000000      0.475000024       1.16217279       1.99275762E-02   1.16234362    
  0.250000000      0.524999976       1.16218424      -2.04354078E-02   1.16236389    
  0.250000000      0.575000048       1.16460323      -5.99337667E-02   1.16614437    
  0.250000000      0.625000000       1.16705608      -9.65802297E-02   1.17104554    
  0.250000000      0.675000012       1.16450703     -0.127672613       1.17148495    
  0.250000000      0.725000024       1.14874649     -0.149519369       1.15843618    
  0.250000000      0.774999976       1.10777521     -0.157550827       1.11892283    
  0.250000000      0.825000048       1.02516365     -0.147144869       1.03566992    
  0.250000000      0.875000000      0.879289567     -0.115722820      0.886871994    
  0.250000000      0.925000012      0.642024040      -6.71178699E-02  0.645522773    
  0.250000000      0.975000024      0.275618911      -1.97908618E-02  0.276328534    
  0.250000000       1.00000000       0.00000000       0.00000000       0.00000000    
  0.416666687       0.00000000       0.00000000       0.00000000       0.00000000    
  0.416666687       2.50000004E-02  0.184509605       2.77868053E-03  0.184530526    
  0.416666687       7.50000030E-02  0.503688514       1.41660497E-02  0.503887713    
  0.416666687      0.125000000      0.758481264       3.25840935E-02  0.759180844    
  0.416666687      0.175000012      0.947384000       5.00047021E-02  0.948702753    
  0.416666687      0.224999994       1.07735884       6.13153279E-02   1.07910228    
  0.416666687      0.275000006       1.15980411       6.44082204E-02   1.16159117    
  0.416666687      0.324999988       1.20741177       5.93215600E-02   1.20886815    
  0.416666687      0.375000000       1.23194897       4.73365672E-02   1.23285806    
  0.416666687      0.425000012       1.24288976       3.03023569E-02   1.24325919    
  0.416666687      0.475000024       1.24672997       1.02389632E-02   1.24677193    
  0.416666687      0.524999976       1.24674070      -1.08284242E-02   1.24678779    
  0.416666687      0.575000048       1.24292183      -3.08887418E-02   1.24330556    
  0.416666687      0.625000000       1.23199737      -4.79160845E-02   1.23292887    
  0.416666687      0.675000012       1.20746815      -5.98900765E-02   1.20895243    
  0.416666687      0.725000024       1.15985894      -6.49610162E-02   1.16167665    
  0.416666687      0.774999976       1.07740271      -6.18472770E-02   1.07917643    
  0.416666687      0.825000048      0.947409987      -5.05113602E-02  0.948755562    
  0.416666687      0.875000000      0.758487582      -3.30627784E-02  0.759207845    
  0.416666687      0.925000012      0.503682792      -1.46117881E-02  0.503894687    
  0.416666687      0.975000024      0.184510797      -2.99228914E-03  0.184535071    
  0.416666687       1.00000000       0.00000000       0.00000000       0.00000000    
  0.583333373       0.00000000       0.00000000       0.00000000       0.00000000    
  0.583333373       2.50000004E-02  0.161756545      -9.18983947E-04  0.161759153    
  0.583333373       7.50000030E-02  0.452523023      -4.51798755E-04  0.452523261    
  0.583333373      0.125000000      0.698797643       3.67930508E-03  0.698807299    
  0.583333373      0.175000012      0.894493639       9.33115464E-03  0.894542336    
  0.583333373      0.224999994       1.04008698       1.43720675E-02   1.04018629    
  0.583333373      0.275000006       1.14127946       1.73222441E-02   1.14141095    
  0.583333373      0.324999988       1.20674026       1.74725037E-02   1.20686674    
  0.583333373      0.375000000       1.24583673       1.47976810E-02   1.24592459    
  0.583333373      0.425000012       1.26684594       9.78389382E-03   1.26688373    
  0.583333373      0.475000024       1.27578592       3.24877887E-03   1.27579010    
  0.583333373      0.524999976       1.27579129      -3.81063228E-03   1.27579701    
  0.583333373      0.575000048       1.26686049      -1.03417225E-02   1.26690269    
  0.583333373      0.625000000       1.24585509      -1.53476484E-02   1.24594963    
  0.583333373      0.675000012       1.20675349      -1.80108529E-02   1.20688784    
  0.583333373      0.725000024       1.14127803      -1.78454667E-02   1.14141750    
  0.583333373      0.774999976       1.04006302      -1.48771405E-02   1.04016948    
  0.583333373      0.825000048      0.894445896      -9.81614739E-03  0.894499779    
  0.583333373      0.875000000      0.698732913      -4.14336473E-03  0.698745191    
  0.583333373      0.925000012      0.452461392       1.32808927E-05  0.452461392    
  0.583333373      0.975000024      0.161731988       7.07195839E-04  0.161733538    
  0.583333373       1.00000000       0.00000000       0.00000000       0.00000000    
  0.750000000       0.00000000       0.00000000       0.00000000       0.00000000    
  0.750000000       2.50000004E-02  0.154259801      -1.79757585E-03  0.154270276    
  0.750000000       7.50000030E-02  0.432554722      -4.34486335E-03  0.432576537    
  0.750000000      0.125000000      0.671187162      -4.90630465E-03  0.671205103    
  0.750000000      0.175000012      0.864525080      -3.98240145E-03  0.864534259    
  0.750000000      0.224999994       1.01214910      -2.34645442E-03   1.01215184    
  0.750000000      0.275000006       1.11819696      -6.84122322E-04   1.11819720    
  0.750000000      0.324999988       1.18966722       5.19198016E-04   1.18966734    
  0.750000000      0.375000000       1.23448777       1.02765812E-03   1.23448825    
  0.750000000      0.425000012       1.25987029       8.46028444E-04   1.25987053    
  0.750000000      0.475000024       1.27115560       1.70246378E-04   1.27115560    
  0.750000000      0.524999976       1.27115512      -6.83103397E-04   1.27115524    
  0.750000000      0.575000048       1.25986838      -1.35628984E-03   1.25986910    
  0.750000000      0.625000000       1.23447907      -1.53252552E-03   1.23448002    
  0.750000000      0.675000012       1.18964374      -1.01603556E-03   1.18964422    
  0.750000000      0.725000024       1.11815095       1.97146554E-04   1.11815095    
  0.750000000      0.774999976       1.01207614       1.87052519E-03   1.01207781    
  0.750000000      0.825000048      0.864427626       3.51855671E-03  0.864434779    
  0.750000000      0.875000000      0.671077371       4.45538107E-03  0.671092153    
  0.750000000      0.925000012      0.432460159       3.91243491E-03  0.432477862    
  0.750000000      0.975000024      0.154221386       1.58730277E-03  0.154229552    
  0.750000000       1.00000000       0.00000000       0.00000000       0.00000000    
  0.916666687       0.00000000       0.00000000       0.00000000       0.00000000    
  0.916666687       2.50000004E-02  0.150312215      -1.98262557E-03  0.150325283    
  0.916666687       7.50000030E-02  0.421468496      -5.24248369E-03  0.421501100    
  0.916666687      0.125000000      0.654501319      -7.05111492E-03  0.654539287    
  0.916666687      0.175000012      0.844144404      -7.55080907E-03  0.844178200    
  0.916666687      0.224999994      0.989971876      -7.11206719E-03  0.989997447    
  0.916666687      0.275000006       1.09579825      -6.09279890E-03   1.09581518    
  0.916666687      0.324999988       1.16809106      -4.79428191E-03   1.16810095    
  0.916666687      0.375000000       1.21418142      -3.42848105E-03   1.21418631    
  0.916666687      0.425000012       1.24074209      -2.10687122E-03   1.24074388    
  0.916666687      0.475000024       1.25271845      -8.51797755E-04   1.25271869    
  0.916666687      0.524999976       1.25271440       3.74564232E-04   1.25271440    
  0.916666687      0.575000048       1.24072933       1.63131685E-03   1.24073040    
  0.916666687      0.625000000       1.21415544       2.95616454E-03   1.21415901    
  0.916666687      0.675000012       1.16804528       4.32636449E-03   1.16805327    
  0.916666687      0.725000024       1.09572649       5.63015277E-03   1.09574103    
  0.916666687      0.774999976      0.989871621       6.65538106E-03  0.989893973    
  0.916666687      0.825000048      0.844020188       7.10075907E-03  0.844050050    
  0.916666687      0.875000000      0.654368520       6.60859328E-03  0.654401898    
  0.916666687      0.925000012      0.421357453       4.81380336E-03  0.421384960    
  0.916666687      0.975000024      0.150267050       1.77319848E-03  0.150277510    
  0.916666687       1.00000000       0.00000000       0.00000000       0.00000000    
   1.08333337       0.00000000       0.00000000       0.00000000       0.00000000    
   1.08333337       2.50000004E-02  0.147068441      -2.00710422E-03  0.147082135    
   1.08333337       7.50000030E-02  0.412476718      -5.39066223E-03  0.412511945    
   1.08333337      0.125000000      0.640752316      -7.45826215E-03  0.640795708    
   1.08333337      0.175000012      0.826712608      -8.29686783E-03  0.826754272    
   1.08333337      0.224999994      0.969933987      -8.18420015E-03  0.969968498    
   1.08333337      0.275000006       1.07413507      -7.38113886E-03   1.07416046    
   1.08333337      0.324999988       1.14558673      -6.11674646E-03   1.14560306    
   1.08333337      0.375000000       1.19136453      -4.57323343E-03   1.19137323    
   1.08333337      0.425000012       1.21788597      -2.87989341E-03   1.21788943    
   1.08333337      0.475000024       1.22989607      -1.11827988E-03   1.22989655    
   1.08333337      0.524999976       1.22989047       6.62458013E-04   1.22989070    
   1.08333337      0.575000048       1.21786737       2.42468412E-03   1.21786976    
   1.08333337      0.625000000       1.19132948       4.11940413E-03   1.19133663    
   1.08333337      0.675000012       1.14552963       5.66502148E-03   1.14554358    
   1.08333337      0.725000024       1.07405078       6.93204300E-03   1.07407320    
   1.08333337      0.774999976      0.969820797       7.73798861E-03  0.969851673    
   1.08333337      0.825000048      0.826576352       7.85407890E-03  0.826613665    
   1.08333337      0.875000000      0.640609562       7.02011772E-03  0.640648007    
   1.08333337      0.925000012      0.412358940       4.96418402E-03  0.412388831    
   1.08333337      0.975000024      0.147020489       1.79833104E-03  0.147031486    
   1.08333337       1.00000000       0.00000000       0.00000000       0.00000000    
   1.25000000       0.00000000       0.00000000       0.00000000       0.00000000    
   1.25000000       2.50000004E-02  0.143901974      -2.00383598E-03  0.143915921    
   1.25000000       7.50000030E-02  0.403847933      -5.39163034E-03  0.403883934    
   1.25000000      0.125000000      0.627620518      -7.48984795E-03  0.627665222    
   1.25000000      0.175000012      0.809999347      -8.38564988E-03  0.810042799    
   1.25000000      0.224999994      0.950508237      -8.34156759E-03  0.950544834    
   1.25000000      0.275000006       1.05278587      -7.59573933E-03   1.05281329    
   1.25000000      0.324999988       1.12297761      -6.35564327E-03   1.12299562    
   1.25000000      0.375000000       1.16800404      -4.79092589E-03   1.16801381    
   1.25000000      0.425000012       1.19412661      -3.03076766E-03   1.19413042    
   1.25000000      0.475000024       1.20596969      -1.16902904E-03   1.20597017    
   1.25000000      0.524999976       1.20596337       7.23890960E-04   1.20596349    
   1.25000000      0.575000048       1.19410563       2.58602365E-03   1.19410849    
   1.25000000      0.625000000       1.16796494       4.34684847E-03   1.16797304    
   1.25000000      0.675000012       1.12291598       5.91231789E-03   1.12293148    
   1.25000000      0.725000024       1.05269647       7.15347612E-03   1.05272079    
   1.25000000      0.774999976      0.950390220       7.90076330E-03  0.950423062    
   1.25000000      0.825000048      0.809858799       7.94672593E-03  0.809897780    
   1.25000000      0.875000000      0.627474606       7.05389213E-03  0.627514243    
   1.25000000      0.925000012      0.403728426       4.96596284E-03  0.403758973    
   1.25000000      0.975000024      0.143853635       1.79522007E-03  0.143864840    
   1.25000000       1.00000000       0.00000000       0.00000000       0.00000000    
   1.41666675       0.00000000       0.00000000       0.00000000       0.00000000    
   1.41666675       2.50000004E-02  0.140716672      -1.99914537E-03  0.140730873    
   1.41666675       7.50000030E-02  0.395236790      -5.37753385E-03  0.395273387    
   1.41666675      0.125000000      0.614570379      -7.46987388E-03  0.614615738    
   1.41666675      0.175000012      0.793418288      -8.36750865E-03  0.793462455    
   1.41666675      0.224999994      0.931225300      -8.33226740E-03  0.931262612    
   1.41666675      0.275000006       1.03154111      -7.59847462E-03   1.03156900    
   1.41666675      0.324999988       1.10039544      -6.36858167E-03   1.10041392    
   1.41666675      0.375000000       1.14457512      -4.80788155E-03   1.14458525    
   1.41666675      0.425000012       1.17021537      -3.04404180E-03   1.17021930    
   1.41666675      0.475000024       1.18184304      -1.17242511E-03   1.18184364    
   1.41666675      0.524999976       1.18183637       7.32684799E-04   1.18183661    
   1.41666675      0.575000048       1.17019343       2.60442402E-03   1.17019629    
   1.41666675      0.625000000       1.14453483       4.36860323E-03   1.14454317    
   1.41666675      0.675000012       1.10033250       5.92961721E-03   1.10034847    
   1.41666675      0.725000024       1.03145027       7.16000516E-03   1.03147507    
   1.41666675      0.774999976      0.931106448       7.89446197E-03  0.931139946    
   1.41666675      0.825000048      0.793277502       7.93068670E-03  0.793317139    
   1.41666675      0.875000000      0.614424765       7.03530060E-03  0.614465058    
   1.41666675      0.925000012      0.395117998       4.95273434E-03  0.395149022    
   1.41666675      0.975000024      0.140668660       1.79082365E-03  0.140680060    
   1.41666675       1.00000000       0.00000000       0.00000000       0.00000000    
   1.58333349       0.00000000       0.00000000       0.00000000       0.00000000    
   1.58333349       2.50000004E-02  0.137516201      -1.99660333E-03  0.137530699    
   1.58333349       7.50000030E-02  0.386608899      -5.36922226E-03  0.386646181    
   1.58333349      0.125000000      0.601517081      -7.45584164E-03  0.601563275    
   1.58333349      0.175000012      0.776852608      -8.34994763E-03  0.776897490    
   1.58333349      0.224999994      0.911972284      -8.31401814E-03  0.912010193    
   1.58333349      0.275000006       1.01033115      -7.58189522E-03   1.01035953    
   1.58333349      0.324999988       1.07784235      -6.35527261E-03   1.07786107    
   1.58333349      0.375000000       1.12116241      -4.79842443E-03   1.12117267    
   1.58333349      0.425000012       1.14630675      -3.03796865E-03   1.14631081    
   1.58333349      0.475000024       1.15771031      -1.16921833E-03   1.15771091    
   1.58333349      0.524999976       1.15770388       7.33189052E-04   1.15770411    
   1.58333349      0.575000048       1.14628506       2.60169408E-03   1.14628804    
   1.58333349      0.625000000       1.12112236       4.36183717E-03   1.12113082    
   1.58333349      0.675000012       1.07777917       5.91857731E-03   1.07779551    
   1.58333349      0.725000024       1.01024055       7.14510772E-03   1.01026583    
   1.58333349      0.774999976      0.911854267       7.87724275E-03  0.911888301    
   1.58333349      0.825000048      0.776713490       7.91388471E-03  0.776753783    
   1.58333349      0.875000000      0.601373494       7.02184625E-03  0.601414502    
   1.58333349      0.925000012      0.386491776       4.94473055E-03  0.386523396    
   1.58333349      0.975000024      0.137468934       1.78839103E-03  0.137480572    
   1.58333349       1.00000000       0.00000000       0.00000000       0.00000000    
   1.75000000       0.00000000       0.00000000       0.00000000       0.00000000    
   1.75000000       2.50000004E-02  0.134312332      -1.99504476E-03  0.134327143    
   1.75000000       7.50000030E-02  0.377977490      -5.36496378E-03  0.378015578    
   1.75000000      0.125000000      0.588463664      -7.44955242E-03  0.588510811    
   1.75000000      0.175000012      0.760292411      -8.34209193E-03  0.760338187    
   1.75000000      0.224999994      0.892730951      -8.30528419E-03  0.892769575    
   1.75000000      0.275000006      0.989137888      -7.57326512E-03  0.989166856    
   1.75000000      0.324999988       1.05530906      -6.34756219E-03   1.05532813    
   1.75000000      0.375000000       1.09777057      -4.79230564E-03   1.09778106    
   1.75000000      0.425000012       1.12241817      -3.03393463E-03   1.12242222    
   1.75000000      0.475000024       1.13359761      -1.16750062E-03   1.13359821    
   1.75000000      0.524999976       1.13359118       7.32516812E-04   1.13359141    
   1.75000000      0.575000048       1.12239742       2.59893201E-03   1.12240040    
   1.75000000      0.625000000       1.09773159       4.35720477E-03   1.09774017    
   1.75000000      0.675000012       1.05524683       5.91222988E-03   1.05526340    
   1.75000000      0.725000024      0.989048958       7.13762175E-03  0.989074707    
   1.75000000      0.774999976      0.892614722       7.86952861E-03  0.892649412    
   1.75000000      0.825000048      0.760155678       7.90678430E-03  0.760196805    
   1.75000000      0.875000000      0.588322699       7.01609813E-03  0.588364542    
   1.75000000      0.925000012      0.377862513       4.94098943E-03  0.377894819    
   1.75000000      0.975000024      0.134266078       1.78707694E-03  0.134277970    
   1.75000000       1.00000000       0.00000000       0.00000000       0.00000000    
   1.91666675       0.00000000       0.00000000       0.00000000       0.00000000    
   1.91666675       2.50000004E-02  0.131111920      -1.99413276E-03  0.131127089    
   1.91666675       7.50000030E-02  0.369353950      -5.36283851E-03  0.369392872    
   1.91666675      0.125000000      0.575420260      -7.44722597E-03  0.575468481    
   1.91666675      0.175000012      0.743743062      -8.34000390E-03  0.743789852    
   1.91666675      0.224999994      0.873501539      -8.30346905E-03  0.873540998    
   1.91666675      0.275000006      0.967958331      -7.57183228E-03  0.967987955    
   1.91666675      0.324999988       1.03279066      -6.34648092E-03   1.03281021    
   1.91666675      0.375000000       1.07439482      -4.79134731E-03   1.07440555    
   1.91666675      0.425000012       1.09854627      -3.03321192E-03   1.09855044    
   1.91666675      0.475000024       1.10950160      -1.16719329E-03   1.10950220    
   1.91666675      0.524999976       1.10949516       7.32505112E-04   1.10949540    
   1.91666675      0.575000048       1.09852600       2.59866822E-03   1.09852910    
   1.91666675      0.625000000       1.07435679       4.35659615E-03   1.07436562    
   1.91666675      0.675000012       1.03272986       5.91133395E-03   1.03274679    
   1.91666675      0.725000024      0.967871428       7.13660661E-03  0.967897713    
   1.91666675      0.774999976      0.873387814       7.86835421E-03  0.873423278    
   1.91666675      0.825000048      0.743609071       7.90546369E-03  0.743651092    
   1.91666675      0.875000000      0.575282097       7.01460429E-03  0.575324833    
   1.91666675      0.925000012      0.369241297       4.93942527E-03  0.369274348    
   1.91666675      0.975000024      0.131066531       1.78633130E-03  0.131078705    
   1.91666675       1.00000000       0.00000000       0.00000000       0.00000000    
   2.08333349       0.00000000       0.00000000       0.00000000       0.00000000    
   2.08333349       2.50000004E-02  0.127918214      -1.99327013E-03  0.127933741    
   2.08333349       7.50000030E-02  0.360744357      -5.36133721E-03  0.360784203    
   2.08333349      0.125000000      0.562392890      -7.44646834E-03  0.562442183    
   2.08333349      0.175000012      0.727209449      -8.34020041E-03  0.727257252    
   2.08333349      0.224999994      0.854287267      -8.30436498E-03  0.854327619    
   2.08333349      0.275000006      0.946793556      -7.57285440E-03  0.946823835    
   2.08333349      0.324999988       1.01028657      -6.34730142E-03   1.01030648    
   2.08333349      0.375000000       1.05103302      -4.79192147E-03   1.05104399    
   2.08333349      0.425000012       1.07468843      -3.03339073E-03   1.07469273    
   2.08333349      0.475000024       1.08541977      -1.16698304E-03   1.08542037    
   2.08333349      0.524999976       1.08541358       7.33093009E-04   1.08541381    
   2.08333349      0.575000048       1.07466841       2.59963330E-03   1.07467163    
   2.08333349      0.625000000       1.05099571       4.35798708E-03   1.05100477    
   2.08333349      0.675000012       1.01022696       5.91297634E-03   1.01024425    
   2.08333349      0.725000024      0.946708143       7.13813491E-03  0.946735084    
   2.08333349      0.774999976      0.854175925       7.86949135E-03  0.854212165    
   2.08333349      0.825000048      0.727078080       7.90592842E-03  0.727121055    
   2.08333349      0.875000000      0.562257528       7.01414142E-03  0.562301278    
   2.08333349      0.925000012      0.360633999       4.93824203E-03  0.360667825    
   2.08333349      0.975000024      0.127873644       1.78564410E-03  0.127886117    
   2.08333349       1.00000000       0.00000000       0.00000000       0.00000000    
   2.25000000       0.00000000       0.00000000       0.00000000       0.00000000    
   2.25000000       2.50000004E-02  0.124733135      -1.99222076E-03  0.124749042    
   2.25000000       7.50000030E-02  0.352152556      -5.35968225E-03  0.352193326    
   2.25000000      0.125000000      0.549385667      -7.44599709E-03  0.549436092    
   2.25000000      0.175000012      0.710694909      -8.34094547E-03  0.710743845    
   2.25000000      0.224999994      0.835090518      -8.30572471E-03  0.835131824    
   2.25000000      0.275000006      0.925644636      -7.57440645E-03  0.925675631    
   2.25000000      0.324999988      0.987797678      -6.34888047E-03  0.987818062    
   2.25000000      0.375000000       1.02768564      -4.79338225E-03   1.02769685    
   2.25000000      0.425000012       1.05084467      -3.03441985E-03   1.05084908    
   2.25000000      0.475000024       1.06135154      -1.16714870E-03   1.06135213    
   2.25000000      0.524999976       1.06134534       7.33863213E-04   1.06134558    
   2.25000000      0.575000048       1.05082488       2.60106171E-03   1.05082810    
   2.25000000      0.625000000       1.02764928       4.35979338E-03   1.02765846    
   2.25000000      0.675000012      0.987739623       5.91501640E-03  0.987757325    
   2.25000000      0.725000024      0.925561309       7.14030955E-03  0.925588846    
   2.25000000      0.774999976      0.834981620       7.87152816E-03  0.835018694    
   2.25000000      0.825000048      0.710566282       7.90712889E-03  0.710610271    
   2.25000000      0.875000000      0.549253047       7.01396028E-03  0.549297810    
   2.25000000      0.925000012      0.352044433       4.93703736E-03  0.352079034    
   2.25000000      0.975000024      0.124689415       1.78488728E-03  0.124702193    
   2.25000000       1.00000000       0.00000000       0.00000000       0.00000000    
   2.41666698       0.00000000       0.00000000       0.00000000       0.00000000    
   2.41666698       2.50000004E-02  0.121558398      -1.99119584E-03  0.121574707    
   2.41666698       7.50000030E-02  0.343581468      -5.35799190E-03  0.343623251    
   2.41666698      0.125000000      0.536401629      -7.44542293E-03  0.536453307    
   2.41666698      0.175000012      0.694202363      -8.34186189E-03  0.694252491    
   2.41666698      0.224999994      0.815913618      -8.30771588E-03  0.815955937    
   2.41666698      0.275000006      0.904514194      -7.57684465E-03  0.904545903    
   2.41666698      0.324999988      0.965325952      -6.35128282E-03  0.965346873    
   2.41666698      0.375000000       1.00435483      -4.79539204E-03   1.00436628    
   2.41666698      0.425000012       1.02701652      -3.03571182E-03   1.02702105    
   2.41666698      0.475000024       1.03729844      -1.16748596E-03   1.03729904    
   2.41666698      0.524999976       1.03729224       7.34475325E-04   1.03729248    
   2.41666698      0.575000048       1.02699721       2.60246685E-03   1.02700055    
   2.41666698      0.625000000       1.00431919       4.36193449E-03   1.00432861    
   2.41666698      0.675000012      0.965269446       5.91788907E-03  0.965287626    
   2.41666698      0.725000024      0.904432893       7.14335497E-03  0.904461086    
   2.41666698      0.774999976      0.815807223       7.87410047E-03  0.815845191    