 TITLE = "TESTPLOT" 
 VARIABLES="x","y","fx","fy","magf" 
 ZONE T="1", I=          61 , J=          21
   0.00000000       0.00000000       1.00000000       0.00000000       1.00000000    
   0.00000000       2.50000004E-02   1.00000000       0.00000000       1.00000000    
   0.00000000       7.50000030E-02   1.00000000       0.00000000       1.00000000    
   0.00000000      0.125000000       1.00000000       0.00000000       1.00000000    
   0.00000000      0.175000012       1.00000000       0.00000000       1.00000000    
   0.00000000      0.224999994       1.00000000       0.00000000       1.00000000    
   0.00000000      0.275000006       1.00000000       0.00000000       1.00000000    
   0.00000000      0.324999988       1.00000000       0.00000000       1.00000000    
   0.00000000      0.375000000       1.00000000       0.00000000       1.00000000    
   0.00000000      0.425000012       1.00000000       0.00000000       1.00000000    
   0.00000000      0.475000024       1.00000000       0.00000000       1.00000000    
   0.00000000      0.524999976       1.00000000       0.00000000       1.00000000    
   0.00000000      0.575000048       1.00000000       0.00000000       1.00000000    
   0.00000000      0.625000000       1.00000000       0.00000000       1.00000000    
   0.00000000      0.675000012       1.00000000       0.00000000       1.00000000    
   0.00000000      0.725000024       1.00000000       0.00000000       1.00000000    
   0.00000000      0.774999976       1.00000000       0.00000000       1.00000000    
   0.00000000      0.825000048       1.00000000       0.00000000       1.00000000    
   0.00000000      0.875000000       1.00000000       0.00000000       1.00000000    
   0.00000000      0.925000012       1.00000000       0.00000000       1.00000000    
   0.00000000      0.975000024       1.00000000       0.00000000       1.00000000    
   0.00000000       1.00000000       1.00000000       0.00000000       1.00000000    
   8.33333358E-02   0.00000000      0.500000000       0.00000000      0.500000000    
   8.33333358E-02   2.50000004E-02  0.674328446       9.53294635E-02  0.681033432    
   8.33333358E-02   7.50000030E-02  0.870010793      0.227100492      0.899162650    
   8.33333358E-02  0.125000000      0.977140665      0.267847240       1.01318610    
   8.33333358E-02  0.175000012       1.03226721      0.259920955       1.06448793    
   8.33333358E-02  0.224999994       1.05718374      0.227983683       1.08148694    
   8.33333358E-02  0.275000006       1.06531107      0.186134428       1.08144987    
   8.33333358E-02  0.324999988       1.06500530      0.141939387       1.07442224    
   8.33333358E-02  0.375000000       1.06142569       9.89098549E-02   1.06602418    
   8.33333358E-02  0.425000012       1.05765176       5.80864027E-02   1.05924559    
   8.33333358E-02  0.475000024       1.05539083       1.90736577E-02   1.05556321    
   8.33333358E-02  0.524999976       1.05539620      -1.92622300E-02   1.05557191    
   8.33333358E-02  0.575000048       1.05766881      -5.82815446E-02   1.05927336    
   8.33333358E-02  0.625000000       1.06145465      -9.91184860E-02   1.06607246    
   8.33333358E-02  0.675000012       1.06504536     -0.142168254       1.07449210    
   8.33333358E-02  0.725000024       1.06535959     -0.186389416       1.08154154    
   8.33333358E-02  0.774999976       1.05723989     -0.228269100       1.08160198    
   8.33333358E-02  0.825000048       1.03232741     -0.260239452       1.06462407    
   8.33333358E-02  0.875000000      0.977199912     -0.268198282       1.01333606    
   8.33333358E-02  0.925000012      0.870061040     -0.227474004      0.899305642    
   8.33333358E-02  0.975000024      0.674360693      -9.55196396E-02  0.681092024    
   8.33333358E-02   1.00000000      0.500000000       0.00000000      0.500000000    
  0.250000000       0.00000000       0.00000000       0.00000000       0.00000000    
  0.250000000       2.50000004E-02  0.272629470       2.04234067E-02  0.273393393    
  0.250000000       7.50000030E-02  0.632941484       7.03995749E-02  0.636844575    
  0.250000000      0.125000000      0.866780877      0.123633191      0.875553727    
  0.250000000      0.175000012       1.01315761      0.160158634       1.02573824    
  0.250000000      0.224999994       1.09991074      0.174772233       1.11370957    
  0.250000000      0.275000006       1.14738548      0.168944478       1.15975678    
  0.250000000      0.324999988       1.17040658      0.146661192       1.17955971    
  0.250000000      0.375000000       1.17953610      0.112401441       1.18487954    
  0.250000000      0.425000012       1.18196023       7.02633411E-02   1.18404686    
  0.250000000      0.475000024       1.18212080       2.37288978E-02   1.18235886    
  0.250000000      0.524999976       1.18213344      -2.42108498E-02   1.18238139    
  0.250000000      0.575000048       1.18199849      -7.07471147E-02   1.18411386    
  0.250000000      0.625000000       1.17959905     -0.112887874       1.18498838    
  0.250000000      0.675000012       1.17048883     -0.147149712       1.17970216    
  0.250000000      0.725000024       1.14748073     -0.169432849       1.15992224    
  0.250000000      0.774999976       1.10001230     -0.175256103       1.11388588    
  0.250000000      0.825000048       1.01325846     -0.160632148       1.02591205    
  0.250000000      0.875000000      0.866872311     -0.124090031      0.875708818    
  0.250000000      0.925000012      0.633013606      -7.08298460E-02  0.636963964    
  0.250000000      0.975000024      0.272673845      -2.06302423E-02  0.273453176    
  0.250000000       1.00000000       0.00000000       0.00000000       0.00000000    
  0.416666687       0.00000000       0.00000000       0.00000000       0.00000000    
  0.416666687       2.50000004E-02  0.176066995       3.77598312E-03  0.176107481    
  0.416666687       7.50000030E-02  0.480731815       1.85196511E-02  0.481088400    
  0.416666687      0.125000000      0.727912903       4.23282608E-02  0.729142547    
  0.416666687      0.175000012      0.918163419       6.56859651E-02  0.920510054    
  0.416666687      0.224999994       1.05777776       8.19376111E-02   1.06094646    
  0.416666687      0.275000006       1.15552402       8.76922235E-02   1.15884674    
  0.416666687      0.324999988       1.22059846       8.22058022E-02   1.22336352    
  0.416666687      0.375000000       1.26136637       6.65885732E-02   1.26312280    
  0.416666687      0.425000012       1.28459835       4.31158617E-02   1.28532171    
  0.416666687      0.475000024       1.29501176       1.47214625E-02   1.29509544    
  0.416666687      0.524999976       1.29502106      -1.53426398E-02   1.29511201    
  0.416666687      0.575000048       1.28462577      -4.37311158E-02   1.28536987    
  0.416666687      0.625000000       1.26140893      -6.71915933E-02   1.26319718    
  0.416666687      0.675000012       1.22064793      -8.27907324E-02   1.22345233    
  0.416666687      0.725000024       1.15557313      -8.82532895E-02   1.15893829    
  0.416666687      0.774999976       1.05781901      -8.24699253E-02   1.06102884    
  0.416666687      0.825000048      0.918191910      -6.61862865E-02  0.920574307    
  0.416666687      0.875000000      0.727927327      -4.27950695E-02  0.729184210    
  0.416666687      0.925000012      0.480737329      -1.89501941E-02  0.481110692    
  0.416666687      0.975000024      0.176074564      -3.98152601E-03  0.176119581    
  0.416666687       1.00000000       0.00000000       0.00000000       0.00000000    
  0.583333373       0.00000000       0.00000000       0.00000000       0.00000000    
  0.583333373       2.50000004E-02  0.148248762      -1.99664995E-04  0.148248896    
  0.583333373       7.50000030E-02  0.416803420       2.66918889E-03  0.416811943    
  0.583333373      0.125000000      0.651536345       1.06710717E-02  0.651623726    
  0.583333373      0.175000012      0.849161625       2.06515528E-02  0.849412680    
  0.583333373      0.224999994       1.00927675       2.93785539E-02   1.00970423    
  0.583333373      0.275000006       1.13385391       3.44045833E-02   1.13437581    
  0.583333373      0.324999988       1.22639036       3.43847498E-02   1.22687232    
  0.583333373      0.375000000       1.29099476       2.91065965E-02   1.29132283    
  0.583333373      0.425000012       1.33154416       1.93379037E-02   1.33168459    
  0.583333373      0.475000024       1.35101438       6.57894835E-03   1.35103047    
  0.583333373      0.524999976       1.35101080      -7.22364895E-03   1.35103011    
  0.583333373      0.575000048       1.33153439      -1.99736916E-02   1.33168423    
  0.583333373      0.625000000       1.29097629      -2.97250617E-02   1.29131842    
  0.583333373      0.675000012       1.22635841      -3.49785723E-02   1.22685719    
  0.583333373      0.725000024       1.13380504      -3.49681079E-02   1.13434410    
  0.583333373      0.774999976       1.00921106      -2.99084578E-02   1.00965416    
  0.583333373      0.825000048      0.849081993      -2.11468451E-02  0.849345326    
  0.583333373      0.875000000      0.651453137      -1.11328773E-02  0.651548266    
  0.583333373      0.925000012      0.416737080      -3.09677841E-03  0.416748613    
  0.583333373      0.975000024      0.148225605      -5.10116024E-06  0.148225605    
  0.583333373       1.00000000       0.00000000       0.00000000       0.00000000    
  0.750000000       0.00000000       0.00000000       0.00000000       0.00000000    
  0.750000000       2.50000004E-02  0.137748480      -1.41932431E-03  0.137755796    
  0.750000000       7.50000030E-02  0.389087617      -2.73467973E-03  0.389097214    
  0.750000000      0.125000000      0.613558590      -1.30929647E-03  0.613560021    
  0.750000000      0.175000012      0.808954239       1.89081486E-03  0.808956444    
  0.750000000      0.224999994      0.974020123       5.53103210E-03  0.974035800    
  0.750000000      0.275000006       1.10859191       8.38990416E-03   1.10862362    
  0.750000000      0.324999988       1.21346223       9.59704630E-03   1.21350014    
  0.750000000      0.375000000       1.29004419       8.76963791E-03   1.29007399    
  0.750000000      0.425000012       1.33993518       6.03718497E-03   1.33994877    
  0.750000000      0.475000024       1.36448836       1.96779380E-03   1.36448979    
  0.750000000      0.524999976       1.36447096      -2.57862802E-03   1.36447346    
  0.750000000      0.575000048       1.33988357      -6.64007710E-03   1.33990002    
  0.750000000      0.625000000       1.28995812      -9.35677625E-03   1.28999197    
  0.750000000      0.675000012       1.21334243      -1.01620816E-02   1.21338499    
  0.750000000      0.725000024       1.10844278      -8.92815366E-03   1.10847878    
  0.750000000      0.774999976      0.973848581      -6.03970978E-03  0.973867297    
  0.750000000      0.825000048      0.808773935      -2.36982387E-03  0.808777392    
  0.750000000      0.875000000      0.613390148       8.57867184E-04  0.613390744    
  0.750000000      0.925000012      0.388962030       2.31211539E-03  0.388968915    
  0.750000000      0.975000024      0.137701690       1.21590577E-03  0.137707055    
  0.750000000       1.00000000       0.00000000       0.00000000       0.00000000    
  0.916666687       0.00000000       0.00000000       0.00000000       0.00000000    
  0.916666687       2.50000004E-02  0.132687077      -1.83109136E-03  0.132699713    
  0.916666687       7.50000030E-02  0.374885619      -4.64760093E-03  0.374914438    
  0.916666687      0.125000000      0.592464209      -5.76432236E-03  0.592492223    
  0.916666687      0.175000012      0.784038365      -5.43610379E-03  0.784057200    
  0.916666687      0.224999994      0.948518753      -4.22347337E-03  0.948528171    
  0.916666687      0.275000006       1.08524561      -2.69901054E-03   1.08524895    
  0.916666687      0.324999988       1.19402051      -1.33972964E-03   1.19402122    
  0.916666687      0.375000000       1.27502680      -4.44054342E-04   1.27502692    
  0.916666687      0.425000012       1.32866168      -9.35384305E-05   1.32866168    
  0.916666687      0.475000024       1.35533619      -1.65428515E-04   1.35533619    
  0.916666687      0.524999976       1.35530710      -3.93146998E-04   1.35530710    
  0.916666687      0.575000048       1.32857442      -4.58693830E-04   1.32857454    
  0.916666687      0.625000000       1.27488494      -9.62388513E-05   1.27488494    
  0.916666687      0.675000012       1.19382846       8.15868785E-04   1.19382882    
  0.916666687      0.725000024       1.08501446       2.19500624E-03   1.08501661    
  0.916666687      0.774999976      0.948263764       3.74101847E-03  0.948271155    
  0.916666687      0.825000048      0.783781171       4.97512799E-03  0.783796966    
  0.916666687      0.875000000      0.592232704       5.32333925E-03  0.592256606    
  0.916666687      0.925000012      0.374717057       4.22925316E-03  0.374740899    
  0.916666687      0.975000024      0.132623762       1.62851205E-03  0.132633761    
  0.916666687       1.00000000       0.00000000       0.00000000       0.00000000    
   1.08333337       0.00000000       0.00000000       0.00000000       0.00000000    
   1.08333337       2.50000004E-02  0.129450545      -1.96696236E-03  0.129465491    
   1.08333337       7.50000030E-02  0.365591198      -5.30224619E-03  0.365629643    
   1.08333337      0.125000000      0.578014493      -7.34262913E-03  0.578061104    
   1.08333337      0.175000012      0.765727520      -8.11739452E-03  0.765770555    
   1.08333337      0.224999994      0.927829802      -7.90223479E-03  0.927863479    
   1.08333337      0.275000006       1.06359160      -6.99483277E-03   1.06361461    
   1.08333337      0.324999988       1.17250335      -5.67317475E-03   1.17251706    
   1.08333337      0.375000000       1.25427508      -4.15833062E-03   1.25428200    
   1.08333337      0.425000012       1.30878687      -2.59063113E-03   1.30878937    
   1.08333337      0.475000024       1.33601737      -1.02991844E-03   1.33601773    
   1.08333337      0.524999976       1.33597898       5.22488728E-04   1.33597910    
   1.08333337      0.575000048       1.30867314       2.08719750E-03   1.30867481    
   1.08333337      0.625000000       1.25409293       3.66310752E-03   1.25409830    
   1.08333337      0.675000012       1.17226160       5.18897921E-03   1.17227304    
   1.08333337      0.725000024       1.06330419       6.52294047E-03   1.06332421    
   1.08333337      0.774999976      0.927518368       7.44355749E-03  0.927548289    
   1.08333337      0.825000048      0.765419066       7.67208496E-03  0.765457511    
   1.08333337      0.875000000      0.577741981       6.91035204E-03  0.577783287    
   1.08333337      0.925000012      0.365395248       4.88750823E-03  0.365427941    
   1.08333337      0.975000024      0.129376680       1.76513474E-03  0.129388720    
   1.08333337       1.00000000       0.00000000       0.00000000       0.00000000    
   1.25000000       0.00000000       0.00000000       0.00000000       0.00000000    
   1.25000000       2.50000004E-02  0.126800627      -2.00739503E-03  0.126816511    
   1.25000000       7.50000030E-02  0.357985407      -5.50695509E-03  0.358027756    
   1.25000000      0.125000000      0.565981865      -7.85573386E-03  0.566036403    
   1.25000000      0.175000012      0.749965668      -9.01747309E-03  0.750019848    
   1.25000000      0.224999994      0.909145713      -9.17086005E-03  0.909191966    
   1.25000000      0.275000006       1.04281139      -8.50989111E-03   1.04284608    
   1.25000000      0.324999988       1.15037394      -7.22918939E-03   1.15039659    
   1.25000000      0.375000000       1.23138487      -5.50850574E-03   1.23139715    
   1.25000000      0.425000012       1.28553224      -3.50285298E-03   1.28553700    
   1.25000000      0.475000024       1.31262732      -1.34000077E-03   1.31262803    
   1.25000000      0.524999976       1.31258368       8.73400480E-04   1.31258392    
   1.25000000      0.575000048       1.28540301       3.03833606E-03   1.28540659    
   1.25000000      0.625000000       1.23117745       5.04807290E-03   1.23118782    
   1.25000000      0.675000012       1.15010202       6.77483436E-03   1.15012205    
   1.25000000      0.725000024       1.04249144       8.06265697E-03   1.04252255    
   1.25000000      0.774999976      0.908801734       8.73087347E-03  0.908843696    
   1.25000000      0.825000048      0.749628305       8.58492218E-03  0.749677420    
   1.25000000      0.875000000      0.565686584       7.43094925E-03  0.565735400    
   1.25000000      0.925000012      0.357775122       5.09544136E-03  0.357811391    
   1.25000000      0.975000024      0.126721919       1.80629292E-03  0.126734793    
   1.25000000       1.00000000       0.00000000       0.00000000       0.00000000    
   1.41666675       0.00000000       0.00000000       0.00000000       0.00000000    
   1.41666675       2.50000004E-02  0.124317765      -2.01689755E-03  0.124334127    
   1.41666675       7.50000030E-02  0.350907117      -5.56043722E-03  0.350951165    
   1.41666675      0.125000000      0.554749668      -7.99905881E-03  0.554807305    
   1.41666675      0.175000012      0.735093594      -9.28090699E-03  0.735152185    
   1.41666675      0.224999994      0.891204894      -9.55588743E-03  0.891256094    
   1.41666675      0.275000006       1.02240157      -8.98268074E-03   1.02244103    
   1.41666675      0.324999988       1.12808561      -7.72469072E-03   1.12811208    
   1.41666675      0.375000000       1.20776749      -5.94409928E-03   1.20778215    
   1.41666675      0.425000012       1.26107562      -3.79783171E-03   1.26108134    
   1.41666675      0.475000024       1.28776717      -1.43611734E-03   1.28776801    
   1.41666675      0.524999976       1.28772092       9.97061958E-04   1.28772128    
   1.41666675      0.575000048       1.26093912       3.35995434E-03   1.26094365    
   1.41666675      0.625000000       1.20754766       5.50806988E-03   1.20756030    
   1.41666675      0.675000012       1.12779832       7.29143200E-03   1.12782192    
   1.41666675      0.725000024       1.02206612       8.55257083E-03   1.02210200    
   1.41666675      0.774999976      0.890846372       9.12860315E-03  0.890893102    
   1.41666675      0.825000048      0.734743834       8.85657035E-03  0.734797239    
   1.41666675      0.875000000      0.554445207       7.57851452E-03  0.554497004    
   1.41666675      0.925000012      0.350691617       5.15056727E-03  0.350729436    
   1.41666675      0.975000024      0.124237604       1.81621406E-03  0.124250881    
   1.41666675       1.00000000       0.00000000       0.00000000       0.00000000    
   1.58333349       0.00000000       0.00000000       0.00000000       0.00000000    
   1.58333349       2.50000004E-02  0.121870458      -2.01805122E-03  0.121887162    
   1.58333349       7.50000030E-02  0.343966067      -5.56941144E-03  0.344011158    
   1.58333349      0.125000000      0.543747187      -8.02817009E-03  0.543806434    
   1.58333349      0.175000012      0.720496058      -9.34099406E-03  0.720556617    
   1.58333349      0.224999994      0.873510003      -9.65059921E-03  0.873563349    
   1.58333349      0.275000006       1.00212979      -9.10489354E-03   1.00217116    
   1.58333349      0.324999988       1.10576797      -7.85647053E-03   1.10579586    
   1.58333349      0.375000000       1.18393242      -6.06146734E-03   1.18394792    
   1.58333349      0.425000012       1.23624063      -3.87674524E-03   1.23624671    
   1.58333349      0.475000024       1.26243591      -1.45847944E-03   1.26243675    
   1.58333349      0.524999976       1.26238847       1.03750604E-03   1.26238883    
   1.58333349      0.575000048       1.23610091       3.45590757E-03   1.23610580    
   1.58333349      0.625000000       1.18370867       5.64112328E-03   1.18372214    
   1.58333349      0.675000012       1.10547602       7.43621681E-03   1.10550106    
   1.58333349      0.725000024       1.00179017       8.68456438E-03   1.00182784    
   1.58333349      0.774999976      0.873148263       9.23074037E-03  0.873197079    
   1.58333349      0.825000048      0.720144272       8.92214105E-03  0.720199585    
   1.58333349      0.875000000      0.543442369       7.61114620E-03  0.543495655    
   1.58333349      0.925000012      0.343751311       5.16111962E-03  0.343790054    
   1.58333349      0.975000024      0.121791139       1.81765400E-03  0.121804699    
   1.58333349       1.00000000       0.00000000       0.00000000       0.00000000    
   1.75000000       0.00000000       0.00000000       0.00000000       0.00000000    
   1.75000000       2.50000004E-02  0.119424582      -2.01704516E-03  0.119441614    
   1.75000000       7.50000030E-02  0.337047845      -5.56728290E-03  0.337093830    
   1.75000000      0.125000000      0.532794476      -8.02743994E-03  0.532854915    
   1.75000000      0.175000012      0.705967605      -9.34487022E-03  0.706029475    
   1.75000000      0.224999994      0.855884671      -9.66104493E-03  0.855939209    
   1.75000000      0.275000006      0.981903613      -9.12184455E-03  0.981945992    
   1.75000000      0.324999988       1.08345187      -7.87730142E-03   1.08348048    
   1.75000000      0.375000000       1.16004562      -6.08121324E-03   1.16006160    
   1.75000000      0.425000012       1.21130681      -3.88957630E-03   1.21131301    
   1.75000000      0.475000024       1.23697841      -1.45982066E-03   1.23697925    
   1.75000000      0.524999976       1.23693073       1.04913593E-03   1.23693120    
   1.75000000      0.575000048       1.21116734       3.47840134E-03   1.21117234    
   1.75000000      0.625000000       1.15982354       5.66946203E-03   1.15983737    
   1.75000000      0.675000012       1.08316231       7.46466033E-03   1.08318794    
   1.75000000      0.725000024      0.981566787       8.70800577E-03  0.981605411    
   1.75000000      0.774999976      0.855526328       9.24597867E-03  0.855576277    
   1.75000000      0.825000048      0.705619931       8.92903097E-03  0.705676436    
   1.75000000      0.875000000      0.532493591       7.61223119E-03  0.532548010    
   1.75000000      0.925000012      0.336835921       5.15999738E-03  0.336875439    
   1.75000000      0.975000024      0.119346231       1.81698473E-03  0.119360059    
   1.75000000       1.00000000       0.00000000       0.00000000       0.00000000    
   1.91666675       0.00000000       0.00000000       0.00000000       0.00000000    
   1.91666675       2.50000004E-02  0.116973944      -2.01618904E-03  0.116991319    
   1.91666675       7.50000030E-02  0.330124527      -5.56407543E-03  0.330171406    
   1.91666675      0.125000000      0.521842599      -8.02159682E-03  0.521904230    
   1.91666675      0.175000012      0.691447258      -9.33740102E-03  0.691510320    
   1.91666675      0.224999994      0.838271737      -9.65319760E-03  0.838327289    
   1.91666675      0.275000006      0.961689711      -9.11480375E-03  0.961732924    
   1.91666675      0.324999988       1.06114161      -7.87202455E-03   1.06117082    
   1.91666675      0.375000000       1.13615406      -6.07739110E-03   1.13617027    
   1.91666675      0.425000012       1.18635750      -3.88653157E-03   1.18636394    
   1.91666675      0.475000024       1.21149969      -1.45745010E-03   1.21150053    
   1.91666675      0.524999976       1.21145272       1.05101732E-03   1.21145320    
   1.91666675      0.575000048       1.18622065       3.47949611E-03   1.18622577    
   1.91666675      0.625000000       1.13593626       5.66906389E-03   1.13595045    
   1.91666675      0.675000012       1.06085777       7.46214623E-03   1.06088400    
   1.91666675      0.725000024      0.961359560       8.70305672E-03  0.961398959    
   1.91666675      0.774999976      0.837920845       9.23920237E-03  0.837971807    
   1.91666675      0.825000048      0.691106975       8.92180949E-03  0.691164553    
   1.91666675      0.875000000      0.521548033       7.60628376E-03  0.521603465    
   1.91666675      0.925000012      0.329916954       5.15670516E-03  0.329957247    
   1.91666675      0.975000024      0.116896689       1.81610486E-03  0.116910793    
   1.91666675       1.00000000       0.00000000       0.00000000       0.00000000    
   2.08333349       0.00000000       0.00000000       0.00000000       0.00000000    
   2.08333349       2.50000004E-02  0.114518896      -2.01585819E-03  0.114536636    
   2.08333349       7.50000030E-02  0.323193133      -5.56265283E-03  0.323240995    
   2.08333349      0.125000000      0.510883093      -8.01843777E-03  0.510945976    
   2.08333349      0.175000012      0.676922083      -9.33250040E-03  0.676986396    
   2.08333349      0.224999994      0.820657432      -9.64719616E-03  0.820714116    
   2.08333349      0.275000006      0.941477418      -9.10844933E-03  0.941521466    
   2.08333349      0.324999988       1.03883469      -7.86579121E-03   1.03886449    
   2.08333349      0.375000000       1.11226690      -6.07200991E-03   1.11228347    
   2.08333349      0.425000012       1.16141272      -3.88287148E-03   1.16141915    
   2.08333349      0.475000024       1.18602502      -1.45584834E-03   1.18602586    
   2.08333349      0.524999976       1.18597937       1.05055526E-03   1.18597984    
   2.08333349      0.575000048       1.16127920       3.47707840E-03   1.16128445    
   2.08333349      0.625000000       1.11205506       5.66465314E-03   1.11206949    
   2.08333349      0.675000012       1.03855813       7.45623792E-03   1.03858495    
   2.08333349      0.725000024      0.941155970       8.69667903E-03  0.941196144    
   2.08333349      0.774999976      0.820315838       9.23307240E-03  0.820367813    
   2.08333349      0.825000048      0.676590741       8.91662762E-03  0.676649511    
   2.08333349      0.875000000      0.510596633       7.60266278E-03  0.510653198    
   2.08333349      0.925000012      0.322991550       5.15481830E-03  0.323032677    
   2.08333349      0.975000024      0.114443719       1.81558949E-03  0.114458114    
   2.08333349       1.00000000       0.00000000       0.00000000       0.00000000    
   2.25000000       0.00000000       0.00000000       0.00000000       0.00000000    
   2.25000000       2.50000004E-02  0.112061068      -2.01546797E-03  0.112079196    
   2.25000000       7.50000030E-02  0.316257060      -5.56134293E-03  0.316305965    
   2.25000000      0.125000000      0.499918014      -8.01601540E-03  0.499982268    
   2.25000000      0.175000012      0.662392020      -9.32891853E-03  0.662457705    
   2.25000000      0.224999994      0.803040266      -9.64263827E-03  0.803098142    
   2.25000000      0.275000006      0.921264529      -9.10344813E-03  0.921309531    
   2.25000000      0.324999988       1.01652968      -7.86130596E-03   1.01656008    
   2.25000000      0.375000000       1.08838367      -6.06867205E-03   1.08840060    
   2.25000000      0.425000012       1.13647294      -3.88067681E-03   1.13647962    
   2.25000000      0.475000024       1.16055655      -1.45511923E-03   1.16055751    
   2.25000000      0.524999976       1.16051197       1.04945980E-03   1.16051245    
   2.25000000      0.575000048       1.13634324       3.47423949E-03   1.13634861    
   2.25000000      0.625000000       1.08817804       5.66063309E-03   1.08819282    
   2.25000000      0.675000012       1.01626050       7.45161436E-03   1.01628780    
   2.25000000      0.725000024      0.920951962       8.69182684E-03  0.920992970    
   2.25000000      0.774999976      0.802708387       9.22861695E-03  0.802761436    
   2.25000000      0.825000048      0.662069917       8.91312212E-03  0.662129939    
   2.25000000      0.875000000      0.499639630       7.60042714E-03  0.499697447    
   2.25000000      0.925000012      0.316061080       5.15389070E-03  0.316103101    
   2.25000000      0.975000024      0.111988440       1.81543094E-03  0.112003155    
   2.25000000       1.00000000       0.00000000       0.00000000       0.00000000    
   2.41666698       0.00000000       0.00000000       0.00000000       0.00000000    
   2.41666698       2.50000004E-02  0.109602019      -2.01554014E-03  0.109620549    
   2.41666698       7.50000030E-02  0.309318513      -5.56134060E-03  0.309368491    
   2.41666698      0.125000000      0.488950431      -8.01576395E-03  0.489016145    
   2.41666698      0.175000012      0.647859573      -9.32846963E-03  0.647926748    
   2.41666698      0.224999994      0.785421789      -9.64216515E-03  0.785480976    
   2.41666698      0.275000006      0.901051402      -9.10306722E-03  0.901097357    
   2.41666698      0.324999988      0.994225860      -7.86080305E-03  0.994256914    
   2.41666698      0.375000000       1.06450224      -6.06803689E-03   1.06451952    
   2.41666698      0.425000012       1.11153579      -3.88036203E-03   1.11154258    
   2.41666698      0.475000024       1.13509154      -1.45529257E-03   1.13509250    
   2.41666698      0.524999976       1.13504839       1.04889902E-03   1.13504887    
   2.41666698      0.575000048       1.11141026       3.47336521E-03   1.11141562    
   2.41666698      0.625000000       1.06430244       5.65956533E-03   1.06431746    
   2.41666698      0.675000012      0.993963718       7.45040458E-03  0.993991613    
   2.41666698      0.725000024      0.900747776       8.69053602E-03  0.900789678    
   2.41666698      0.774999976      0.785099030       9.22741555E-03  0.785153270    