 TITLE = "TESTPLOT" 
 VARIABLES="x","y","fx","fy","magf" 
 ZONE T="1", I=          61 , J=          21
   0.00000000       0.00000000       1.00000000       0.00000000       1.00000000    
   0.00000000       2.50000004E-02   1.00000000       0.00000000       1.00000000    
   0.00000000       7.50000030E-02   1.00000000       0.00000000       1.00000000    
   0.00000000      0.125000000       1.00000000       0.00000000       1.00000000    
   0.00000000      0.175000012       1.00000000       0.00000000       1.00000000    
   0.00000000      0.224999994       1.00000000       0.00000000       1.00000000    
   0.00000000      0.275000006       1.00000000       0.00000000       1.00000000    
   0.00000000      0.324999988       1.00000000       0.00000000       1.00000000    
   0.00000000      0.375000000       1.00000000       0.00000000       1.00000000    
   0.00000000      0.425000012       1.00000000       0.00000000       1.00000000    
   0.00000000      0.475000024       1.00000000       0.00000000       1.00000000    
   0.00000000      0.524999976       1.00000000       0.00000000       1.00000000    
   0.00000000      0.575000048       1.00000000       0.00000000       1.00000000    
   0.00000000      0.625000000       1.00000000       0.00000000       1.00000000    
   0.00000000      0.675000012       1.00000000       0.00000000       1.00000000    
   0.00000000      0.725000024       1.00000000       0.00000000       1.00000000    
   0.00000000      0.774999976       1.00000000       0.00000000       1.00000000    
   0.00000000      0.825000048       1.00000000       0.00000000       1.00000000    
   0.00000000      0.875000000       1.00000000       0.00000000       1.00000000    
   0.00000000      0.925000012       1.00000000       0.00000000       1.00000000    
   0.00000000      0.975000024       1.00000000       0.00000000       1.00000000    
   0.00000000       1.00000000       1.00000000       0.00000000       1.00000000    
   8.33333358E-02   0.00000000      0.500000000       0.00000000      0.500000000    
   8.33333358E-02   2.50000004E-02  0.963273406       8.25270545E-03  0.963308752    
   8.33333358E-02   7.50000030E-02  0.995287299       1.49385892E-02  0.995399415    
   8.33333358E-02  0.125000000      0.994987607       1.18971411E-02  0.995058775    
   8.33333358E-02  0.175000012      0.993962407       9.25638247E-03  0.994005501    
   8.33333358E-02  0.224999994      0.993225455       7.14580156E-03  0.993251145    
   8.33333358E-02  0.275000006      0.992715240       5.41013293E-03  0.992729962    
   8.33333358E-02  0.324999988      0.992366195       3.93260689E-03  0.992374003    
   8.33333358E-02  0.375000000      0.992134690       2.62958743E-03  0.992138207    
   8.33333358E-02  0.425000012      0.991993427       1.43858546E-03  0.991994500    
   8.33333358E-02  0.475000024      0.991926551       3.10044561E-04  0.991926610    
   8.33333358E-02  0.524999976      0.991926551      -7.98386056E-04  0.991926908    
   8.33333358E-02  0.575000048      0.991993546      -1.92695297E-03  0.991995394    
   8.33333358E-02  0.625000000      0.992134929      -3.11805448E-03  0.992139816    
   8.33333358E-02  0.675000012      0.992366493      -4.42090770E-03  0.992376328    
   8.33333358E-02  0.725000024      0.992715836      -5.89798857E-03  0.992733359    
   8.33333358E-02  0.774999976      0.993226051      -7.63306394E-03  0.993255377    
   8.33333358E-02  0.825000048      0.993963301      -9.74253379E-03  0.994011045    
   8.33333358E-02  0.875000000      0.994988561      -1.23808347E-02  0.995065570    
   8.33333358E-02  0.925000012      0.995288610      -1.54117364E-02  0.995407939    
   8.33333358E-02  0.975000024      0.963275194      -8.48483574E-03  0.963312566    
   8.33333358E-02   1.00000000      0.500000000       0.00000000      0.500000000    
  0.250000000       0.00000000       0.00000000       0.00000000       0.00000000    
  0.250000000       2.50000004E-02  0.913755715       1.06096675E-03  0.913756311    
  0.250000000       7.50000030E-02  0.978934884       2.62012519E-03  0.978938401    
  0.250000000      0.125000000      0.979527712       3.26118851E-03  0.979533136    
  0.250000000      0.175000012      0.978191137       3.33390734E-03  0.978196800    
  0.250000000      0.224999994      0.977130294       3.07005853E-03  0.977135122    
  0.250000000      0.275000006      0.976344585       2.61248602E-03  0.976348102    
  0.250000000      0.324999988      0.975776315       2.04599206E-03  0.975778461    
  0.250000000      0.375000000      0.975382805       1.41998031E-03  0.975383818    
  0.250000000      0.425000012      0.975134969       7.62806740E-04  0.975135267    
  0.250000000      0.475000024      0.975015402       9.09725495E-05  0.975015402    
  0.250000000      0.524999976      0.975015521      -5.85091882E-04  0.975015700    
  0.250000000      0.575000048      0.975135326      -1.25684403E-03  0.975136161    
  0.250000000      0.625000000      0.975383401      -1.91397499E-03  0.975385249    
  0.250000000      0.675000012      0.975777268      -2.53988453E-03  0.975780547    
  0.250000000      0.725000024      0.976345897      -3.10603436E-03  0.976350844    
  0.250000000      0.774999976      0.977131724      -3.56281456E-03  0.977138221    
  0.250000000      0.825000048      0.978193164      -3.82510526E-03  0.978200614    
  0.250000000      0.875000000      0.979529977      -3.74926161E-03  0.979537129    
  0.250000000      0.925000012      0.978937626      -3.09664709E-03  0.978942513    
  0.250000000      0.975000024      0.913758874      -1.29450753E-03  0.913759768    
  0.250000000       1.00000000       0.00000000       0.00000000       0.00000000    
  0.416666687       0.00000000       0.00000000       0.00000000       0.00000000    
  0.416666687       2.50000004E-02  0.890957713       2.28749428E-04  0.890957773    
  0.416666687       7.50000030E-02  0.956745803       6.32119889E-04  0.956746042    
  0.416666687      0.125000000      0.958760858       9.14647360E-04  0.958761275    
  0.416666687      0.175000012      0.958383679       1.05791539E-03  0.958384275    
  0.416666687      0.224999994      0.957944751       1.06651674E-03  0.957945347    
  0.416666687      0.275000006      0.957558155       9.63858678E-04  0.957558632    
  0.416666687      0.324999988      0.957242370       7.75365392E-04  0.957242668    
  0.416666687      0.375000000      0.957003951       5.24625415E-04  0.957004070    
  0.416666687      0.425000012      0.956844687       2.32150211E-04  0.956844747    
  0.416666687      0.475000024      0.956765175      -8.43150774E-05  0.956765175    
  0.416666687      0.524999976      0.956765294      -4.08583204E-04  0.956765413    
  0.416666687      0.575000048      0.956845045      -7.25089165E-04  0.956845343    
  0.416666687      0.625000000      0.957004547      -1.01767608E-03  0.957005084    
  0.416666687      0.675000012      0.957243562      -1.26827264E-03  0.957244396    
  0.416666687      0.725000024      0.957559586      -1.45623402E-03  0.957560718    
  0.416666687      0.774999976      0.957946301      -1.55805051E-03  0.957947612    
  0.416666687      0.825000048      0.958385944      -1.54792634E-03  0.958387196    
  0.416666687      0.875000000      0.958763480      -1.40160194E-03  0.958764493    
  0.416666687      0.925000012      0.956748724      -1.10770296E-03  0.956749380    
  0.416666687      0.975000024      0.890960574      -4.61883494E-04  0.890960693    
  0.416666687       1.00000000       0.00000000       0.00000000       0.00000000    
  0.583333373       0.00000000       0.00000000       0.00000000       0.00000000    
  0.583333373       2.50000004E-02  0.871515870       6.17773330E-05  0.871515870    
  0.583333373       7.50000030E-02  0.936097264       1.67929102E-04  0.936097264    
  0.583333373      0.125000000      0.938378215       2.48190743E-04  0.938378215    
  0.583333373      0.175000012      0.938319683       2.99088890E-04  0.938319743    
  0.583333373      0.224999994      0.938164830       3.06856411E-04  0.938164890    
  0.583333373      0.275000006      0.938012242       2.71712226E-04  0.938012242    
  0.583333373      0.324999988      0.937877655       1.98478621E-04  0.937877655    
  0.583333373      0.375000000      0.937770128       9.42201586E-05  0.937770128    
  0.583333373      0.425000012      0.937695503      -3.28082315E-05  0.937695503    
  0.583333373      0.475000024      0.937657356      -1.73530367E-04  0.937657356    
  0.583333373      0.524999976      0.937657416      -3.18750506E-04  0.937657475    
  0.583333373      0.575000048      0.937695861      -4.59284231E-04  0.937695980    
  0.583333373      0.625000000      0.937770963      -5.86070644E-04  0.937771142    
  0.583333373      0.675000012      0.937878847      -6.90076384E-04  0.937879086    
  0.583333373      0.725000024      0.938013792      -7.62800220E-04  0.938014090    
  0.583333373      0.774999976      0.938166499      -7.97156768E-04  0.938166857    
  0.583333373      0.825000048      0.938321710      -7.88029865E-04  0.938322008    
  0.583333373      0.875000000      0.938380539      -7.34146975E-04  0.938380837    
  0.583333373      0.925000012      0.936100006      -6.42455299E-04  0.936100245    
  0.583333373      0.975000024      0.871518731      -2.94367317E-04  0.871518791    
  0.583333373       1.00000000       0.00000000       0.00000000       0.00000000    
  0.750000000       0.00000000       0.00000000       0.00000000       0.00000000    
  0.750000000       2.50000004E-02  0.852823019       1.39121630E-05  0.852823019    
  0.750000000       7.50000030E-02  0.916063130       2.85645692E-05  0.916063130    
  0.750000000      0.125000000      0.918372512       3.45297085E-05  0.918372512    
  0.750000000      0.175000012      0.918410122       3.91276881E-05  0.918410122    
  0.750000000      0.224999994      0.918357313       3.03556990E-05  0.918357313    
  0.750000000      0.275000006      0.918300629       6.47031720E-06  0.918300629    
  0.750000000      0.324999988      0.918248296      -3.19734245E-05  0.918248296    
  0.750000000      0.375000000      0.918205380      -8.30668505E-05  0.918205380    
  0.750000000      0.425000012      0.918174803      -1.43893936E-04  0.918174803    
  0.750000000      0.475000024      0.918159127      -2.10838916E-04  0.918159187    
  0.750000000      0.524999976      0.918159366      -2.79875821E-04  0.918159425    
  0.750000000      0.575000048      0.918175459      -3.46847461E-04  0.918175519    
  0.750000000      0.625000000      0.918206394      -4.07731277E-04  0.918206513    
  0.750000000      0.675000012      0.918249726      -4.58821742E-04  0.918249846    
  0.750000000      0.725000024      0.918302417      -4.96955297E-04  0.918302536    
  0.750000000      0.774999976      0.918359399      -5.19982364E-04  0.918359578    
  0.750000000      0.825000048      0.918412507      -5.27122058E-04  0.918412685    
  0.750000000      0.875000000      0.918375254      -5.19419555E-04  0.918375432    
  0.750000000      0.925000012      0.916066289      -5.01998933E-04  0.916066408    
  0.750000000      0.975000024      0.852826297      -2.45938805E-04  0.852826297    
  0.750000000       1.00000000       0.00000000       0.00000000       0.00000000    
  0.916666687       0.00000000       0.00000000       0.00000000       0.00000000    
  0.916666687       2.50000004E-02  0.834381759      -1.99775650E-06  0.834381759    
  0.916666687       7.50000030E-02  0.896266580      -1.82645017E-05  0.896266580    
  0.916666687      0.125000000      0.898549378      -3.87214095E-05  0.898549378    
  0.916666687      0.175000012      0.898617327      -5.23161216E-05  0.898617327    
  0.916666687      0.224999994      0.898600578      -6.94559640E-05  0.898600578    
  0.916666687      0.275000006      0.898579836      -9.16372228E-05  0.898579836    
  0.916666687      0.324999988      0.898560464      -1.19095021E-04  0.898560464    
  0.916666687      0.375000000      0.898544312      -1.51200627E-04  0.898544312    
  0.916666687      0.425000012      0.898532629      -1.86952020E-04  0.898532689    
  0.916666687      0.475000024      0.898526669      -2.25067255E-04  0.898526669    
  0.916666687      0.524999976      0.898526847      -2.64089555E-04  0.898526907    
  0.916666687      0.575000048      0.898533285      -3.02367960E-04  0.898533344    
  0.916666687      0.625000000      0.898545265      -3.38257931E-04  0.898545325    
  0.916666687      0.675000012      0.898562074      -3.70289898E-04  0.898562133    
  0.916666687      0.725000024      0.898581982      -3.97280441E-04  0.898582101    
  0.916666687      0.774999976      0.898603082      -4.18654119E-04  0.898603201    
  0.916666687      0.825000048      0.898620307      -4.34301444E-04  0.898620427    
  0.916666687      0.875000000      0.898552835      -4.44851350E-04  0.898552954    
  0.916666687      0.925000012      0.896270514      -4.53990593E-04  0.896270633    
  0.916666687      0.975000024      0.834385633      -2.29493089E-04  0.834385633    
  0.916666687       1.00000000       0.00000000       0.00000000       0.00000000    
   1.08333337       0.00000000       0.00000000       0.00000000       0.00000000    
   1.08333337       2.50000004E-02  0.816058457      -7.44493582E-06  0.816058457    
   1.08333337       7.50000030E-02  0.876588404      -3.44825676E-05  0.876588404    
   1.08333337      0.125000000      0.878828883      -6.45209657E-05  0.878828883    
   1.08333337      0.175000012      0.878906071      -8.49437201E-05  0.878906071    
   1.08333337      0.224999994      0.878902018      -1.05429281E-04  0.878902018    
   1.08333337      0.275000006      0.878894627      -1.27200998E-04  0.878894627    
   1.08333337      0.324999988      0.878887653      -1.50711610E-04  0.878887653    
   1.08333337      0.375000000      0.878881752      -1.76036672E-04  0.878881812    
   1.08333337      0.425000012      0.878877580      -2.02687370E-04  0.878877640    
   1.08333337      0.475000024      0.878875434      -2.30105288E-04  0.878875434    
   1.08333337      0.524999976      0.878875613      -2.57854583E-04  0.878875673    
   1.08333337      0.575000048      0.878878236      -2.85290502E-04  0.878878295    
   1.08333337      0.625000000      0.878882885      -3.11745884E-04  0.878882945    
   1.08333337      0.675000012      0.878889382      -3.36794707E-04  0.878889441    
   1.08333337      0.725000024      0.878896952      -3.59976955E-04  0.878897011    
   1.08333337      0.774999976      0.878904819      -3.81084828E-04  0.878904879    
   1.08333337      0.825000048      0.878909409      -4.00161487E-04  0.878909528    
   1.08333337      0.875000000      0.878832757      -4.17541189E-04  0.878832877    
   1.08333337      0.925000012      0.876592755      -4.36173956E-04  0.876592875    
   1.08333337      0.975000024      0.816062927      -2.23226598E-04  0.816062987    
   1.08333337       1.00000000       0.00000000       0.00000000       0.00000000    
   1.25000000       0.00000000       0.00000000       0.00000000       0.00000000    
   1.25000000       2.50000004E-02  0.797813892      -9.47622993E-06  0.797813892    
   1.25000000       7.50000030E-02  0.856992006      -4.03658560E-05  0.856992006    
   1.25000000      0.125000000      0.859185100      -7.36849179E-05  0.859185100    
   1.25000000      0.175000012      0.859264314      -9.65550207E-05  0.859264314    
   1.25000000      0.224999994      0.859264791      -1.18331911E-04  0.859264791    
   1.25000000      0.275000006      0.859262228      -1.40067583E-04  0.859262228    
   1.25000000      0.324999988      0.859259784      -1.62162512E-04  0.859259784    
   1.25000000      0.375000000      0.859257698      -1.84841658E-04  0.859257758    
   1.25000000      0.425000012      0.859256387      -2.07997000E-04  0.859256446    
   1.25000000      0.475000024      0.859255731      -2.31350190E-04  0.859255791    
   1.25000000      0.524999976      0.859256029      -2.54737562E-04  0.859256089    
   1.25000000      0.575000048      0.859257221      -2.78003979E-04  0.859257281    
   1.25000000      0.625000000      0.859259129      -3.01048654E-04  0.859259188    
   1.25000000      0.675000012      0.859261751      -3.23624874E-04  0.859261811    
   1.25000000      0.725000024      0.859264731      -3.45448032E-04  0.859264791    
   1.25000000      0.774999976      0.859267831      -3.66474967E-04  0.859267890    
   1.25000000      0.825000048      0.859267890      -3.86734813E-04  0.859268010    
   1.25000000      0.875000000      0.859189212      -4.06598207E-04  0.859189332    
   1.25000000      0.925000012      0.856996655      -4.28732164E-04  0.856996775    
   1.25000000      0.975000024      0.797818661      -2.20471411E-04  0.797818720    
   1.25000000       1.00000000       0.00000000       0.00000000       0.00000000    
   1.41666675       0.00000000       0.00000000       0.00000000       0.00000000    
   1.41666675       2.50000004E-02  0.779638171      -1.01636961E-05  0.779638171    
   1.41666675       7.50000030E-02  0.837468624      -4.24077443E-05  0.837468624    
   1.41666675      0.125000000      0.839612663      -7.70033876E-05  0.839612663    
   1.41666675      0.175000012      0.839691520      -1.00786885E-04  0.839691520    
   1.41666675      0.224999994      0.839693546      -1.22884521E-04  0.839693546    
   1.41666675      0.275000006      0.839692831      -1.44408550E-04  0.839692831    
   1.41666675      0.324999988      0.839691997      -1.65845966E-04  0.839691997    
   1.41666675      0.375000000      0.839691401      -1.87456622E-04  0.839691460    
   1.41666675      0.425000012      0.839691043      -2.09190970E-04  0.839691103    
   1.41666675      0.475000024      0.839691043      -2.31028564E-04  0.839691103    
   1.41666675      0.524999976      0.839691281      -2.52983678E-04  0.839691341    
   1.41666675      0.575000048      0.839691937      -2.74924765E-04  0.839691937    
   1.41666675      0.625000000      0.839692831      -2.96639686E-04  0.839692831    
   1.41666675      0.675000012      0.839694023      -3.18051607E-04  0.839694083    
   1.41666675      0.725000024      0.839695334      -3.39299324E-04  0.839695394    
   1.41666675      0.774999976      0.839696765      -3.60320410E-04  0.839696825    
   1.41666675      0.825000048      0.839695215      -3.80998215E-04  0.839695275    
   1.41666675      0.875000000      0.839617014      -4.01613506E-04  0.839617133    
   1.41666675      0.925000012      0.837473392      -4.24897182E-04  0.837473512    
   1.41666675      0.975000024      0.779643059      -2.18907939E-04  0.779643059    
   1.41666675       1.00000000       0.00000000       0.00000000       0.00000000    
   1.58333349       0.00000000       0.00000000       0.00000000       0.00000000    
   1.58333349       2.50000004E-02  0.761531472      -1.04172468E-05  0.761531472    
   1.58333349       7.50000030E-02  0.818019152      -4.30781729E-05  0.818019152    
   1.58333349      0.125000000      0.820113778      -7.79927432E-05  0.820113778    
   1.58333349      0.175000012      0.820191383      -1.01999351E-04  0.820191383    
   1.58333349      0.224999994      0.820194125      -1.24168087E-04  0.820194125    
   1.58333349      0.275000006      0.820194006      -1.45620812E-04  0.820194006    
   1.58333349      0.324999988      0.820193887      -1.66823083E-04  0.820193887    
   1.58333349      0.375000000      0.820193768      -1.88031700E-04  0.820193827    
   1.58333349      0.425000012      0.820193827      -2.09215534E-04  0.820193887    
   1.58333349      0.475000024      0.820193946      -2.30424252E-04  0.820194006    
   1.58333349      0.524999976      0.820194244      -2.51713995E-04  0.820194244    
   1.58333349      0.575000048      0.820194721      -2.72942591E-04  0.820194721    
   1.58333349      0.625000000      0.820195317      -2.94049969E-04  0.820195377    
   1.58333349      0.675000012      0.820195973      -3.15062061E-04  0.820196033    
   1.58333349      0.725000024      0.820196748      -3.36069119E-04  0.820196807    
   1.58333349      0.774999976      0.820197463      -3.56951845E-04  0.820197523    
   1.58333349      0.825000048      0.820195436      -3.77703720E-04  0.820195496    
   1.58333349      0.875000000      0.820118546      -3.98651784E-04  0.820118666    
   1.58333349      0.925000012      0.818024457      -4.22324112E-04  0.818024576    
   1.58333349      0.975000024      0.761536956      -2.17715089E-04  0.761537015    
   1.58333349       1.00000000       0.00000000       0.00000000       0.00000000    
   1.75000000       0.00000000       0.00000000       0.00000000       0.00000000    
   1.75000000       2.50000004E-02  0.743498564      -1.03688380E-05  0.743498564    
   1.75000000       7.50000030E-02  0.798648715      -4.29988140E-05  0.798648715    
   1.75000000      0.125000000      0.800693870      -7.78860631E-05  0.800693870    
   1.75000000      0.175000012      0.800769866      -1.01828846E-04  0.800769866    
   1.75000000      0.224999994      0.800772786      -1.23994891E-04  0.800772786    
   1.75000000      0.275000006      0.800772965      -1.45470316E-04  0.800772965    
   1.75000000      0.324999988      0.800773025      -1.66639162E-04  0.800773025    
   1.75000000      0.375000000      0.800773203      -1.87650061E-04  0.800773263    
   1.75000000      0.425000012      0.800773382      -2.08601428E-04  0.800773442    
   1.75000000      0.475000024      0.800773740      -2.29603713E-04  0.800773740    
   1.75000000      0.524999976      0.800773978      -2.50570272E-04  0.800774038    
   1.75000000      0.575000048      0.800774455      -2.71454046E-04  0.800774455    
   1.75000000      0.625000000      0.800774932      -2.92319572E-04  0.800774932    
   1.75000000      0.675000012      0.800775409      -3.13139259E-04  0.800775468    
   1.75000000      0.725000024      0.800776005      -3.33906122E-04  0.800776064    
   1.75000000      0.774999976      0.800776541      -3.54685530E-04  0.800776601    
   1.75000000      0.825000048      0.800774336      -3.75443778E-04  0.800774395    
   1.75000000      0.875000000      0.800699115      -3.96414049E-04  0.800699234    
   1.75000000      0.925000012      0.798654556      -4.20158060E-04  0.798654675    
   1.75000000      0.975000024      0.743504643      -2.16643544E-04  0.743504703    
   1.75000000       1.00000000       0.00000000       0.00000000       0.00000000    
   1.91666675       0.00000000       0.00000000       0.00000000       0.00000000    
   1.91666675       2.50000004E-02  0.725544930      -1.03737229E-05  0.725544930    
   1.91666675       7.50000030E-02  0.779363453      -4.29274151E-05  0.779363453    
   1.91666675      0.125000000      0.781359255      -7.77014357E-05  0.781359255    
   1.91666675      0.175000012      0.781433463      -1.01559039E-04  0.781433463    
   1.91666675      0.224999994      0.781436324      -1.23618913E-04  0.781436324    
   1.91666675      0.275000006      0.781436563      -1.44962833E-04  0.781436563    
   1.91666675      0.324999988      0.781436682      -1.65957113E-04  0.781436682    
   1.91666675      0.375000000      0.781436980      -1.86800666E-04  0.781437039    
   1.91666675      0.425000012      0.781437159      -2.07624616E-04  0.781437218    
   1.91666675      0.475000024      0.781437576      -2.28440302E-04  0.781437635    
   1.91666675      0.524999976      0.781437874      -2.49201577E-04  0.781437933    
   1.91666675      0.575000048      0.781438351      -2.69945187E-04  0.781438410    
   1.91666675      0.625000000      0.781438828      -2.90706841E-04  0.781438887    
   1.91666675      0.675000012      0.781439304      -3.11451528E-04  0.781439364    
   1.91666675      0.725000024      0.781439900      -3.32124793E-04  0.781439960    
   1.91666675      0.774999976      0.781440377      -3.52743344E-04  0.781440437    
   1.91666675      0.825000048      0.781438231      -3.73356219E-04  0.781438291    
   1.91666675      0.875000000      0.781364739      -3.94288189E-04  0.781364858    
   1.91666675      0.925000012      0.779369593      -4.18021140E-04  0.779369712    
   1.91666675      0.975000024      0.725551367      -2.15567852E-04  0.725551367    
   1.91666675       1.00000000       0.00000000       0.00000000       0.00000000    
   2.08333349       0.00000000       0.00000000       0.00000000       0.00000000    
   2.08333349       2.50000004E-02  0.707675815      -1.02952363E-05  0.707675815    
   2.08333349       7.50000030E-02  0.760168970      -4.26318475E-05  0.760168970    
   2.08333349      0.125000000      0.762115598      -7.72567437E-05  0.762115598    
   2.08333349      0.175000012      0.762187958      -1.01116115E-04  0.762187958    
   2.08333349      0.224999994      0.762190819      -1.23114078E-04  0.762190819    
   2.08333349      0.275000006      0.762191057      -1.44340840E-04  0.762191057    
   2.08333349      0.324999988      0.762191296      -1.65233985E-04  0.762191296    
   2.08333349      0.375000000      0.762191534      -1.85962097E-04  0.762191594    
   2.08333349      0.425000012      0.762191832      -2.06633238E-04  0.762191832    
   2.08333349      0.475000024      0.762192130      -2.27258803E-04  0.762192190    
   2.08333349      0.524999976      0.762192607      -2.47860298E-04  0.762192667    
   2.08333349      0.575000048      0.762192965      -2.68462289E-04  0.762192965    
   2.08333349      0.625000000      0.762193441      -2.89049349E-04  0.762193441    
   2.08333349      0.675000012      0.762193918      -3.09631403E-04  0.762194037    
   2.08333349      0.725000024      0.762194455      -3.30246694E-04  0.762194514    
   2.08333349      0.774999976      0.762194872      -3.50864604E-04  0.762194932    
   2.08333349      0.825000048      0.762192845      -3.71435948E-04  0.762192905    
   2.08333349      0.875000000      0.762121260      -3.92251415E-04  0.762121379    
   2.08333349      0.925000012      0.760175347      -4.15833871E-04  0.760175467    
   2.08333349      0.975000024      0.707682490      -2.14440064E-04  0.707682550    
   2.08333349       1.00000000       0.00000000       0.00000000       0.00000000    
   2.25000000       0.00000000       0.00000000       0.00000000       0.00000000    
   2.25000000       2.50000004E-02  0.689896584      -1.02829972E-05  0.689896584    
   2.25000000       7.50000030E-02  0.741070986      -4.25536382E-05  0.741070986    
   2.25000000      0.125000000      0.742968678      -7.70019105E-05  0.742968678    
   2.25000000      0.175000012      0.743039191      -1.00664467E-04  0.743039191    
   2.25000000      0.224999994      0.743041992      -1.22527301E-04  0.743041992    
   2.25000000      0.275000006      0.743042290      -1.43614481E-04  0.743042290    
   2.25000000      0.324999988      0.743042529      -1.64343117E-04  0.743042529    
   2.25000000      0.375000000      0.743042827      -1.84930977E-04  0.743042886    
   2.25000000      0.425000012      0.743043125      -2.05497025E-04  0.743043125    
   2.25000000      0.475000024      0.743043482      -2.26064119E-04  0.743043482    
   2.25000000      0.524999976      0.743043900      -2.46584648E-04  0.743043959    
   2.25000000      0.575000048      0.743044317      -2.67066323E-04  0.743044376    
   2.25000000      0.625000000      0.743044734      -2.87548814E-04  0.743044794    
   2.25000000      0.675000012      0.743045270      -3.07992508E-04  0.743045330    
   2.25000000      0.725000024      0.743045807      -3.28379741E-04  0.743045866    
   2.25000000      0.774999976      0.743046284      -3.48763744E-04  0.743046343    
   2.25000000      0.825000048      0.743044257      -3.69182351E-04  0.743044376    
   2.25000000      0.875000000      0.742974520      -3.89938417E-04  0.742974639    
   2.25000000      0.925000012      0.741077542      -4.13492380E-04  0.741077662    
   2.25000000      0.975000024      0.689903498      -2.13251609E-04  0.689903557    
   2.25000000       1.00000000       0.00000000       0.00000000       0.00000000    
   2.41666698       0.00000000       0.00000000       0.00000000       0.00000000    
   2.41666698       2.50000004E-02  0.672212362      -1.02400390E-05  0.672212362    
   2.41666698       7.50000030E-02  0.722075105      -4.23349047E-05  0.722075105    
   2.41666698      0.125000000      0.723924160      -7.65674340E-05  0.723924160    
   2.41666698      0.175000012      0.723992825      -1.00067700E-04  0.723992825    
   2.41666698      0.224999994      0.723995626      -1.21820107E-04  0.723995626    
   2.41666698      0.275000006      0.723995864      -1.42864650E-04  0.723995864    
   2.41666698      0.324999988      0.723996103      -1.63530465E-04  0.723996103    
   2.41666698      0.375000000      0.723996401      -1.84010889E-04  0.723996460    
   2.41666698      0.425000012      0.723996758      -2.04435666E-04  0.723996818    
   2.41666698      0.475000024      0.723997116      -2.24809977E-04  0.723997176    
   2.41666698      0.524999976      0.723997593      -2.45144271E-04  0.723997593    
   2.41666698      0.575000048      0.723998070      -2.65475828E-04  0.723998129    
   2.41666698      0.625000000      0.723998606      -2.85842572E-04  0.723998666    
   2.41666698      0.675000012      0.723999143      -3.06184258E-04  0.723999202    
   2.41666698      0.725000024      0.723999739      -3.26517387E-04  0.723999858    
   2.41666698      0.774999976      0.724000216      -3.46863933E-04  0.724000275    