 TITLE = "TESTPLOT" 
 VARIABLES="x","y","fx","fy","magf" 
 ZONE T="1", I=          61 , J=          21
   0.00000000       0.00000000       1.00000000       0.00000000       1.00000000    
   0.00000000       2.50000004E-02   1.00000000       0.00000000       1.00000000    
   0.00000000       7.50000030E-02   1.00000000       0.00000000       1.00000000    
   0.00000000      0.125000000       1.00000000       0.00000000       1.00000000    
   0.00000000      0.175000012       1.00000000       0.00000000       1.00000000    
   0.00000000      0.224999994       1.00000000       0.00000000       1.00000000    
   0.00000000      0.275000006       1.00000000       0.00000000       1.00000000    
   0.00000000      0.324999988       1.00000000       0.00000000       1.00000000    
   0.00000000      0.375000000       1.00000000       0.00000000       1.00000000    
   0.00000000      0.425000012       1.00000000       0.00000000       1.00000000    
   0.00000000      0.475000024       1.00000000       0.00000000       1.00000000    
   0.00000000      0.524999976       1.00000000       0.00000000       1.00000000    
   0.00000000      0.575000048       1.00000000       0.00000000       1.00000000    
   0.00000000      0.625000000       1.00000000       0.00000000       1.00000000    
   0.00000000      0.675000012       1.00000000       0.00000000       1.00000000    
   0.00000000      0.725000024       1.00000000       0.00000000       1.00000000    
   0.00000000      0.774999976       1.00000000       0.00000000       1.00000000    
   0.00000000      0.825000048       1.00000000       0.00000000       1.00000000    
   0.00000000      0.875000000       1.00000000       0.00000000       1.00000000    
   0.00000000      0.925000012       1.00000000       0.00000000       1.00000000    
   0.00000000      0.975000024       1.00000000       0.00000000       1.00000000    
   0.00000000       1.00000000       1.00000000       0.00000000       1.00000000    
   8.33333358E-02   0.00000000      0.500000000       0.00000000      0.500000000    
   8.33333358E-02   2.50000004E-02  0.674313068       9.53241438E-02  0.681017458    
   8.33333358E-02   7.50000030E-02  0.869976759      0.227089345      0.899126887    
   8.33333358E-02  0.125000000      0.977100968      0.267836750       1.01314497    
   8.33333358E-02  0.175000012       1.03222704      0.259912968       1.06444693    
   8.33333358E-02  0.224999994       1.05714488      0.227977961       1.08144772    
   8.33333358E-02  0.275000006       1.06527233      0.186130166       1.08141088    
   8.33333358E-02  0.324999988       1.06496716      0.141936183       1.07438397    
   8.33333358E-02  0.375000000       1.06138730       9.89079624E-02   1.06598580    
   8.33333358E-02  0.425000012       1.05761385       5.80854937E-02   1.05920780    
   8.33333358E-02  0.475000024       1.05535269       1.90731324E-02   1.05552506    
   8.33333358E-02  0.524999976       1.05535841      -1.92626361E-02   1.05553424    
   8.33333358E-02  0.575000048       1.05763054      -5.82815446E-02   1.05923522    
   8.33333358E-02  0.625000000       1.06141591      -9.91173387E-02   1.06603372    
   8.33333358E-02  0.675000012       1.06500626     -0.142165825       1.07445312    
   8.33333358E-02  0.725000024       1.06532025     -0.186385572       1.08150208    
   8.33333358E-02  0.774999976       1.05720067     -0.228263453       1.08156252    
   8.33333358E-02  0.825000048       1.03228688     -0.260231495       1.06458282    
   8.33333358E-02  0.875000000      0.977159500     -0.268187970       1.01329434    
   8.33333358E-02  0.925000012      0.870026469     -0.227463588      0.899269581    
   8.33333358E-02  0.975000024      0.674344599      -9.55148786E-02  0.681075394    
   8.33333358E-02   1.00000000      0.500000000       0.00000000      0.500000000    
  0.250000000       0.00000000       0.00000000       0.00000000       0.00000000    
  0.250000000       2.50000004E-02  0.272583485       2.04181820E-02  0.273347139    
  0.250000000       7.50000030E-02  0.632838249       7.03886896E-02  0.636740804    
  0.250000000      0.125000000      0.866660416      0.123623103      0.875433028    
  0.250000000      0.175000012       1.01303697      0.160151035       1.02561796    
  0.250000000      0.224999994       1.09979403      0.174766898       1.11359346    
  0.250000000      0.275000006       1.14727068      0.168940395       1.15964258    
  0.250000000      0.324999988       1.17029274      0.146657825       1.17944634    
  0.250000000      0.375000000       1.17942333      0.112398759       1.18476701    
  0.250000000      0.425000012       1.18184829       7.02611580E-02   1.18393493    
  0.250000000      0.475000024       1.18200827       2.37273555E-02   1.18224633    
  0.250000000      0.524999976       1.18202066      -2.42114719E-02   1.18226862    
  0.250000000      0.575000048       1.18188548      -7.07467049E-02   1.18400109    
  0.250000000      0.625000000       1.17948437     -0.112886705       1.18487418    
  0.250000000      0.675000012       1.17037320     -0.147147790       1.17958713    
  0.250000000      0.725000024       1.14736450     -0.169430137       1.15980673    
  0.250000000      0.774999976       1.09989476     -0.175252154       1.11376917    
  0.250000000      0.825000048       1.01313722     -0.160625860       1.02579129    
  0.250000000      0.875000000      0.866750717     -0.124081120      0.875587225    
  0.250000000      0.925000012      0.632909417      -7.08199739E-02  0.636859298    
  0.250000000      0.975000024      0.272627056      -2.06254441E-02  0.273406148    
  0.250000000       1.00000000       0.00000000       0.00000000       0.00000000    
  0.416666687       0.00000000       0.00000000       0.00000000       0.00000000    
  0.416666687       2.50000004E-02  0.175990880       3.77024268E-03  0.176031262    
  0.416666687       7.50000030E-02  0.480560184       1.85071602E-02  0.480916440    
  0.416666687      0.125000000      0.727712214       4.23154607E-02  0.728941500    
  0.416666687      0.175000012      0.917963386       6.56746179E-02  0.920309722    
  0.416666687      0.224999994       1.05758369       8.19275230E-02   1.06075227    
  0.416666687      0.275000006       1.15533328       8.76832381E-02   1.15865588    
  0.416666687      0.324999988       1.22040844       8.21977109E-02   1.22317338    
  0.416666687      0.375000000       1.26117635       6.65819794E-02   1.26293266    
  0.416666687      0.425000012       1.28440773       4.31117490E-02   1.28513110    
  0.416666687      0.475000024       1.29482007       1.47199742E-02   1.29490376    
  0.416666687      0.524999976       1.29482913      -1.53413732E-02   1.29491997    
  0.416666687      0.575000048       1.28443432      -4.37273681E-02   1.28517842    
  0.416666687      0.625000000       1.26121688      -6.71860576E-02   1.26300514    
  0.416666687      0.675000012       1.22045648      -8.27840120E-02   1.22326088    
  0.416666687      0.725000024       1.15538073      -8.82456526E-02   1.15874588    
  0.416666687      0.774999976       1.05762410      -8.24613720E-02   1.06083393    
  0.416666687      0.825000048      0.917991221      -6.61765859E-02  0.920373380    
  0.416666687      0.875000000      0.727726102      -4.27839980E-02  0.728982687    
  0.416666687      0.925000012      0.480565131      -1.89395286E-02  0.480938196    
  0.416666687      0.975000024      0.175997972      -3.97671852E-03  0.176042885    
  0.416666687       1.00000000       0.00000000       0.00000000       0.00000000    
  0.583333373       0.00000000       0.00000000       0.00000000       0.00000000    
  0.583333373       2.50000004E-02  0.148146003      -2.05821445E-04  0.148146152    
  0.583333373       7.50000030E-02  0.416571438       2.65450333E-03  0.416579902    
  0.583333373      0.125000000      0.651265502       1.06528327E-02  0.651352644    
  0.583333373      0.175000012      0.848891199       2.06306409E-02  0.849141896    
  0.583333373      0.224999994       1.00901151       2.93549262E-02   1.00943840    
  0.583333373      0.275000006       1.13358819       3.43798772E-02   1.13410938    
  0.583333373      0.324999988       1.22612011       3.43615450E-02   1.22660148    
  0.583333373      0.375000000       1.29071808       2.90876739E-02   1.29104578    
  0.583333373      0.425000012       1.33126211       1.93256363E-02   1.33140230    
  0.583333373      0.475000024       1.35072887       6.57465868E-03   1.35074484    
  0.583333373      0.524999976       1.35072613      -7.21932575E-03   1.35074544    
  0.583333373      0.575000048       1.33125246      -1.99613180E-02   1.33140206    
  0.583333373      0.625000000       1.29069901      -2.97061168E-02   1.29104078    
  0.583333373      0.675000012       1.22608781      -3.49555239E-02   1.22658598    
  0.583333373      0.725000024       1.13353837      -3.49442437E-02   1.13407683    
  0.583333373      0.774999976       1.00894511      -2.98860278E-02   1.00938761    
  0.583333373      0.825000048      0.848811269      -2.11268868E-02  0.849074125    
  0.583333373      0.875000000      0.651182294      -1.11157605E-02  0.651277184    
  0.583333373      0.925000012      0.416504592      -3.08348704E-03  0.416516006    
  0.583333373      0.975000024      0.148121923       3.35211723E-07  0.148121923    
  0.583333373       1.00000000       0.00000000       0.00000000       0.00000000    
  0.750000000       0.00000000       0.00000000       0.00000000       0.00000000    
  0.750000000       2.50000004E-02  0.137624606      -1.42681389E-03  0.137631997    
  0.750000000       7.50000030E-02  0.388808548      -2.75434158E-03  0.388818294    
  0.750000000      0.125000000      0.613234997      -1.33765501E-03  0.613236427    
  0.750000000      0.175000012      0.808629990       1.85469200E-03  0.808632135    
  0.750000000      0.224999994      0.973695755       5.48860710E-03  0.973711193    
  0.750000000      0.275000006       1.10825622       8.34458135E-03   1.10828769    
  0.750000000      0.324999988       1.21310711       9.55371000E-03   1.21314478    
  0.750000000      0.375000000       1.28966856       8.73368420E-03   1.28969812    
  0.750000000      0.425000012       1.33954310       6.01357734E-03   1.33955657    
  0.750000000      0.475000024       1.36408675       1.95984566E-03   1.36408818    
  0.750000000      0.524999976       1.36406994      -2.56958348E-03   1.36407232    
  0.750000000      0.575000048       1.33949161      -6.61522429E-03   1.33950794    
  0.750000000      0.625000000       1.28958273      -9.31975339E-03   1.28961647    
  0.750000000      0.675000012       1.21298838      -1.01179257E-02   1.21303058    
  0.750000000      0.725000024       1.10810757      -8.88263807E-03   1.10814321    
  0.750000000      0.774999976      0.973525286      -5.99808572E-03  0.973543763    
  0.750000000      0.825000048      0.808451056      -2.33540777E-03  0.808454454    
  0.750000000      0.875000000      0.613067865       8.83934612E-04  0.613068461    
  0.750000000      0.925000012      0.388683021       2.32924940E-03  0.388689995    
  0.750000000      0.975000024      0.137577042       1.22213201E-03  0.137582466    
  0.750000000       1.00000000       0.00000000       0.00000000       0.00000000    
  0.916666687       0.00000000       0.00000000       0.00000000       0.00000000    
  0.916666687       2.50000004E-02  0.132546291      -1.83909945E-03  0.132559046    
  0.916666687       7.50000030E-02  0.374572247      -4.67010401E-03  0.374601364    
  0.916666687      0.125000000      0.592104912      -5.80003718E-03  0.592133343    
  0.916666687      0.175000012      0.783676982      -5.48477285E-03  0.783696175    
  0.916666687      0.224999994      0.948147058      -4.28259280E-03  0.948156714    
  0.916666687      0.275000006       1.08484364      -2.76307575E-03   1.08484721    
  0.916666687      0.324999988       1.19357586      -1.40128098E-03   1.19357669    
  0.916666687      0.375000000       1.27453828      -4.95007669E-04   1.27453840    
  0.916666687      0.425000012       1.32813692      -1.26621017E-04   1.32813692    
  0.916666687      0.475000024       1.35479212      -1.75814726E-04   1.35479212    
  0.916666687      0.524999976       1.35476303      -3.79020028E-04   1.35476303    
  0.916666687      0.575000048       1.32805085      -4.22097073E-04   1.32805085    
  0.916666687      0.625000000       1.27439797      -4.24883328E-05   1.27439797    
  0.916666687      0.675000012       1.19338703       8.79492844E-04   1.19338739    
  0.916666687      0.725000024       1.08461642       2.26008892E-03   1.08461881    
  0.916666687      0.774999976      0.947895885       3.79976723E-03  0.947903454    
  0.916666687      0.825000048      0.783422947       5.02247456E-03  0.783439040    
  0.916666687      0.875000000      0.591876030       5.35738282E-03  0.591900289    
  0.916666687      0.925000012      0.374405146       4.24992573E-03  0.374429256    
  0.916666687      0.975000024      0.132483512       1.63557753E-03  0.132493600    
  0.916666687       1.00000000       0.00000000       0.00000000       0.00000000    
   1.08333337       0.00000000       0.00000000       0.00000000       0.00000000    
   1.08333337       2.50000004E-02  0.129297435      -1.97486207E-03  0.129312515    
   1.08333337       7.50000030E-02  0.365254045      -5.32517955E-03  0.365292847    
   1.08333337      0.125000000      0.577632308      -7.38005992E-03  0.577679455    
   1.08333337      0.175000012      0.765341163      -8.16949271E-03  0.765384793    
   1.08333337      0.224999994      0.927419901      -7.96667393E-03  0.927454114    
   1.08333337      0.275000006       1.06312764      -7.06554670E-03   1.06315112    
   1.08333337      0.324999988       1.17196751      -5.74156595E-03   1.17198157    
   1.08333337      0.375000000       1.25366545      -4.21482185E-03   1.25367260    
   1.08333337      0.425000012       1.30811751      -2.62690685E-03   1.30812013    
   1.08333337      0.475000024       1.33531618      -1.04058674E-03   1.33531654    
   1.08333337      0.524999976       1.33527899       5.39149856E-04   1.33527911    
   1.08333337      0.575000048       1.30800748       2.12879549E-03   1.30800927    
   1.08333337      0.625000000       1.25348783       3.72361368E-03   1.25349331    
   1.08333337      0.675000012       1.17173159       5.26014064E-03   1.17174339    
   1.08333337      0.725000024       1.06284785       6.59553427E-03   1.06286836    
   1.08333337      0.774999976      0.927115798       7.50896707E-03  0.927146196    
   1.08333337      0.825000048      0.765038848       7.72436243E-03  0.765077829    
   1.08333337      0.875000000      0.577364266       6.94722729E-03  0.577406049    
   1.08333337      0.925000012      0.365060985       4.90921224E-03  0.365093976    
   1.08333337      0.975000024      0.129225194       1.77229976E-03  0.129237339    
   1.08333337       1.00000000       0.00000000       0.00000000       0.00000000    
   1.25000000       0.00000000       0.00000000       0.00000000       0.00000000    
   1.25000000       2.50000004E-02  0.126636714      -2.01471825E-03  0.126652732    
   1.25000000       7.50000030E-02  0.357625693      -5.52794710E-03  0.357668400    
   1.25000000      0.125000000      0.565577507      -7.88949803E-03  0.565632522    
   1.25000000      0.175000012      0.749555111      -9.06396657E-03  0.749609888    
   1.25000000      0.224999994      0.908699274      -9.22840647E-03  0.908746123    
   1.25000000      0.275000006       1.04228759      -8.57329182E-03   1.04232287    
   1.25000000      0.324999988       1.14974809      -7.29042850E-03   1.14977121    
   1.25000000      0.375000000       1.23065519      -5.55920042E-03   1.23066771    
   1.25000000      0.425000012       1.28472042      -3.53558641E-03   1.28472531    
   1.25000000      0.475000024       1.31177115      -1.34938897E-03   1.31177187    
   1.25000000      0.524999976       1.31172943       8.89010145E-04   1.31172979    
   1.25000000      0.575000048       1.28459692       3.07698175E-03   1.28460062    
   1.25000000      0.625000000       1.23045707       5.10453107E-03   1.23046768    
   1.25000000      0.675000012       1.14948654       6.84081437E-03   1.14950693    
   1.25000000      0.725000024       1.04197955       8.12912732E-03   1.04201126    
   1.25000000      0.774999976      0.908367634       8.79011955E-03  0.908410132    
   1.25000000      0.825000048      0.749228477       8.63204338E-03  0.749278188    
   1.25000000      0.875000000      0.565290570       7.46460073E-03  0.565339863    
   1.25000000      0.925000012      0.357420623       5.11583313E-03  0.357457221    
   1.25000000      0.975000024      0.126560152       1.81318505E-03  0.126573145    
   1.25000000       1.00000000       0.00000000       0.00000000       0.00000000    
   1.41666675       0.00000000       0.00000000       0.00000000       0.00000000    
   1.41666675       2.50000004E-02  0.124139972      -2.02386174E-03  0.124156468    
   1.41666675       7.50000030E-02  0.350517631      -5.57901524E-03  0.350562036    
   1.41666675      0.125000000      0.554314077      -8.02677870E-03  0.554372191    
   1.41666675      0.175000012      0.734650850      -9.31731239E-03  0.734709918    
   1.41666675      0.224999994      0.890717149      -9.59975738E-03  0.890768886    
   1.41666675      0.275000006       1.02181745      -9.03037935E-03   1.02185738    
   1.41666675      0.324999988       1.12737489      -7.77024683E-03   1.12740159    
   1.41666675      0.375000000       1.20692778      -5.98134333E-03   1.20694256    
   1.41666675      0.425000012       1.26013494      -3.82120279E-03   1.26014078    
   1.41666675      0.475000024       1.28677130      -1.44144241E-03   1.28677201    
   1.41666675      0.524999976       1.28672743       1.01083203E-03   1.28672779    
   1.41666675      0.575000048       1.26000535       3.39101860E-03   1.26000988    
   1.41666675      0.625000000       1.20672059       5.55224204E-03   1.20673335    
   1.41666675      0.675000012       1.12710190       7.34242052E-03   1.12712574    
   1.41666675      0.725000024       1.02149773       8.60374235E-03   1.02153397    
   1.41666675      0.774999976      0.890374660       9.17448848E-03  0.890421927    
   1.41666675      0.825000048      0.734315455       8.89372919E-03  0.734369338    
   1.41666675      0.875000000      0.554021120       7.60588143E-03  0.554073334    
   1.41666675      0.925000012      0.350309134       5.16802771E-03  0.350347251    
   1.41666675      0.975000024      0.124062449       1.82241050E-03  0.124075830    
   1.41666675       1.00000000       0.00000000       0.00000000       0.00000000    
   1.58333349       0.00000000       0.00000000       0.00000000       0.00000000    
   1.58333349       2.50000004E-02  0.121675417      -2.02399655E-03  0.121692248    
   1.58333349       7.50000030E-02  0.343538165      -5.58425672E-03  0.343583554    
   1.58333349      0.125000000      0.543268919      -8.04799423E-03  0.543328524    
   1.58333349      0.175000012      0.720009923      -9.36469436E-03  0.720070839    
   1.58333349      0.224999994      0.872973204      -9.67747159E-03  0.873026848    
   1.58333349      0.275000006       1.00148451      -9.13326163E-03   1.00152612    
   1.58333349      0.324999988       1.10497975      -7.88336806E-03   1.10500789    
   1.58333349      0.375000000       1.18299866      -6.08337345E-03   1.18301427    
   1.58333349      0.425000012       1.23519206      -3.89027921E-03   1.23519814    
   1.58333349      0.475000024       1.26132500      -1.46119250E-03   1.26132584    
   1.58333349      0.524999976       1.26128078       1.04623812E-03   1.26128113    
   1.58333349      0.575000048       1.23506141       3.47494660E-03   1.23506629    
   1.58333349      0.625000000       1.18279004       5.66786621E-03   1.18280363    
   1.58333349      0.675000012       1.10470545       7.46711390E-03   1.10473073    
   1.58333349      0.725000024       1.00116420       8.71588476E-03   1.00120211    
   1.58333349      0.774999976      0.872630596       9.25943628E-03  0.872679710    
   1.58333349      0.825000048      0.719675243       8.94618779E-03  0.719730854    
   1.58333349      0.875000000      0.542977154       7.63002224E-03  0.543030739    
   1.58333349      0.925000012      0.343330979       5.17444452E-03  0.343369991    
   1.58333349      0.975000024      0.121598214       1.82277139E-03  0.121611878    
   1.58333349       1.00000000       0.00000000       0.00000000       0.00000000    
   1.75000000       0.00000000       0.00000000       0.00000000       0.00000000    
   1.75000000       2.50000004E-02  0.119208410      -2.02223496E-03  0.119225562    
   1.75000000       7.50000030E-02  0.336571693      -5.57905715E-03  0.336617947    
   1.75000000      0.125000000      0.532260835      -8.04077834E-03  0.532321572    
   1.75000000      0.175000012      0.705425620      -9.35853738E-03  0.705487669    
   1.75000000      0.224999994      0.855290115      -9.67503618E-03  0.855344832    
   1.75000000      0.275000006      0.981195986      -9.13586654E-03  0.981238484    
   1.75000000      0.324999988       1.08259344      -7.89049547E-03   1.08262217    
   1.75000000      0.375000000       1.15903330      -6.09186897E-03   1.15904927    
   1.75000000      0.425000012       1.21017206      -3.89608741E-03   1.21017826    
   1.75000000      0.475000024       1.23577762      -1.46147062E-03   1.23577845    
   1.75000000      0.524999976       1.23573399       1.05281151E-03   1.23573446    
   1.75000000      0.575000048       1.21004367       3.48696858E-03   1.21004868    
   1.75000000      0.625000000       1.15882802       5.68159949E-03   1.15884197    
   1.75000000      0.675000012       1.08232415       7.47882249E-03   1.08235002    
   1.75000000      0.725000024      0.980881929       8.72247852E-03  0.980920672    
   1.75000000      0.774999976      0.854954779       9.25959181E-03  0.855004907    
   1.75000000      0.825000048      0.705098391       8.94149952E-03  0.705155075    
   1.75000000      0.875000000      0.531975985       7.62389088E-03  0.532030582    
   1.75000000      0.925000012      0.336369812       5.17015811E-03  0.336409539    
   1.75000000      0.975000024      0.119133562       1.82144146E-03  0.119147487    
   1.75000000       1.00000000       0.00000000       0.00000000       0.00000000    
   1.91666675       0.00000000       0.00000000       0.00000000       0.00000000    
   1.91666675       2.50000004E-02  0.116734736      -2.02118256E-03  0.116752230    
   1.91666675       7.50000030E-02  0.329595149      -5.57477074E-03  0.329642296    
   1.91666675      0.125000000      0.521246552      -8.03199038E-03  0.521308422    
   1.91666675      0.175000012      0.690842748      -9.34569910E-03  0.690905929    
   1.91666675      0.224999994      0.837615848      -9.65996087E-03  0.837671578    
   1.91666675      0.275000006      0.960919857      -9.12046432E-03  0.960963130    
   1.91666675      0.324999988       1.06021869      -7.87647255E-03   1.06024790    
   1.91666675      0.375000000       1.13507473      -6.08081929E-03   1.13509107    
   1.91666675      0.425000012       1.18515301      -3.88890645E-03   1.18515933    
   1.91666675      0.475000024       1.21022773      -1.45855977E-03   1.21022856    
   1.91666675      0.524999976       1.21018481       1.05138740E-03   1.21018529    
   1.91666675      0.575000048       1.18502760       3.48136714E-03   1.18503273    
   1.91666675      0.625000000       1.13487411       5.67201991E-03   1.13488829    
   1.91666675      0.675000012       1.05995595       7.46580493E-03   1.05998230    
   1.91666675      0.725000024      0.960613847       8.70770402E-03  0.960653305    
   1.91666675      0.774999976      0.837289810       9.24530625E-03  0.837340832    
   1.91666675      0.825000048      0.690525174       8.92940536E-03  0.690582931    
   1.91666675      0.875000000      0.520970345       7.61517975E-03  0.521026015    
   1.91666675      0.925000012      0.329399467       5.16540930E-03  0.329439968    
   1.91666675      0.975000024      0.116662353       1.82006788E-03  0.116676554    
   1.91666675       1.00000000       0.00000000       0.00000000       0.00000000    
   2.08333349       0.00000000       0.00000000       0.00000000       0.00000000    
   2.08333349       2.50000004E-02  0.114256352      -2.02038279E-03  0.114274219    
   2.08333349       7.50000030E-02  0.322609544      -5.57178492E-03  0.322657645    
   2.08333349      0.125000000      0.510222554      -8.02603923E-03  0.510285676    
   2.08333349      0.175000012      0.676252961      -9.33673792E-03  0.676317394    
   2.08333349      0.224999994      0.819939494      -9.64871421E-03  0.819996238    
   2.08333349      0.275000006      0.940646827      -9.10856761E-03  0.940690935    
   2.08333349      0.324999988       1.03785157      -7.86546804E-03   1.03788137    
   2.08333349      0.375000000       1.11112773      -6.07181527E-03   1.11114430    
   2.08333349      0.425000012       1.16014826      -3.88304563E-03   1.16015482    
   2.08333349      0.475000024       1.18469310      -1.45664730E-03   1.18469393    
   2.08333349      0.524999976       1.18465137       1.04889635E-03   1.18465185    
   2.08333349      0.575000048       1.16002584       3.47466767E-03   1.16003108    
   2.08333349      0.625000000       1.11093235       5.66206686E-03   1.11094677    
   2.08333349      0.675000012       1.03759623       7.45382020E-03   1.03762305    
   2.08333349      0.725000024      0.940349042       8.69505294E-03  0.940389216    
   2.08333349      0.774999976      0.819622159       9.23362281E-03  0.819674134    
   2.08333349      0.825000048      0.675944209       8.92020017E-03  0.676003039    
   2.08333349      0.875000000      0.509954214       7.60925654E-03  0.510011017    
   2.08333349      0.925000012      0.322419167       5.16265258E-03  0.322460502    
   2.08333349      0.975000024      0.114185780       1.81940501E-03  0.114200272    
   2.08333349       1.00000000       0.00000000       0.00000000       0.00000000    
   2.25000000       0.00000000       0.00000000       0.00000000       0.00000000    
   2.25000000       2.50000004E-02  0.111776173      -2.01995973E-03  0.111794427    
   2.25000000       7.50000030E-02  0.315619826      -5.57033625E-03  0.315668970    
   2.25000000      0.125000000      0.499193728      -8.02328810E-03  0.499258220    
   2.25000000      0.175000012      0.661659300      -9.33274254E-03  0.661725104    
   2.25000000      0.224999994      0.802261472      -9.64376517E-03  0.802319407    
   2.25000000      0.275000006      0.920376062      -9.10295919E-03  0.920421064    
   2.25000000      0.324999988       1.01549101      -7.85982050E-03   1.01552141    
   2.25000000      0.375000000       1.08719063      -6.06721733E-03   1.08720756    
   2.25000000      0.425000012       1.13515639      -3.88025679E-03   1.13516307    
   2.25000000      0.475000024       1.15917313      -1.45589397E-03   1.15917408    
   2.25000000      0.524999976       1.15913272       1.04733475E-03   1.15913320    
   2.25000000      0.575000048       1.13503742       3.47092235E-03   1.13504267    
   2.25000000      0.625000000       1.08700037       5.65660140E-03   1.08701503    
   2.25000000      0.675000012       1.01524234       7.44727533E-03   1.01526964    
   2.25000000      0.725000024      0.920086026       8.68840888E-03  0.920127034    
   2.25000000      0.774999976      0.801952362       9.22770798E-03  0.802005470    
   2.25000000      0.825000048      0.661358356       8.91553611E-03  0.661418438    
   2.25000000      0.875000000      0.498932272       7.60609284E-03  0.498990238    
   2.25000000      0.925000012      0.315434515       5.16096596E-03  0.315476745    
   2.25000000      0.975000024      0.111707568       1.81890861E-03  0.111722372    
   2.25000000       1.00000000       0.00000000       0.00000000       0.00000000    
   2.41666698       0.00000000       0.00000000       0.00000000       0.00000000    
   2.41666698       2.50000004E-02  0.109296158      -2.01938488E-03  0.109314814    
   2.41666698       7.50000030E-02  0.308629900      -5.56895183E-03  0.308680147    
   2.41666698      0.125000000      0.488164246      -8.02159496E-03  0.488230139    
   2.41666698      0.175000012      0.647065282      -9.33090784E-03  0.647132576    
   2.41666698      0.224999994      0.784583926      -9.64158215E-03  0.784643173    
   2.41666698      0.275000006      0.900107741      -9.10046604E-03  0.900153756    
   2.41666698      0.324999988      0.993135393      -7.85748474E-03  0.993166506    
   2.41666698      0.375000000       1.06326079      -6.06524199E-03   1.06327808    
   2.41666698      0.425000012       1.11017370      -3.87906539E-03   1.11018050    
   2.41666698      0.475000024       1.13366318      -1.45603693E-03   1.13366413    
   2.41666698      0.524999976       1.13362384       1.04594661E-03   1.13362432    
   2.41666698      0.575000048       1.11005783       3.46844597E-03   1.11006331    
   2.41666698      0.625000000       1.06307554       5.65340649E-03   1.06309056    
   2.41666698      0.675000012      0.992892861       7.44406553E-03  0.992920756    
   2.41666698      0.725000024      0.899824977       8.68536346E-03  0.899866879    
   2.41666698      0.774999976      0.784282684       9.22471657E-03  0.784336925    