 TITLE = "TESTPLOT" 
 VARIABLES="x","y","fx","fy","magf" 
 ZONE T="1", I=          61 , J=          21
   0.00000000       0.00000000       1.00000000       0.00000000       1.00000000    
   0.00000000       2.50000004E-02   1.00000000       0.00000000       1.00000000    
   0.00000000       7.50000030E-02   1.00000000       0.00000000       1.00000000    
   0.00000000      0.125000000       1.00000000       0.00000000       1.00000000    
   0.00000000      0.175000012       1.00000000       0.00000000       1.00000000    
   0.00000000      0.224999994       1.00000000       0.00000000       1.00000000    
   0.00000000      0.275000006       1.00000000       0.00000000       1.00000000    
   0.00000000      0.324999988       1.00000000       0.00000000       1.00000000    
   0.00000000      0.375000000       1.00000000       0.00000000       1.00000000    
   0.00000000      0.425000012       1.00000000       0.00000000       1.00000000    
   0.00000000      0.475000024       1.00000000       0.00000000       1.00000000    
   0.00000000      0.524999976       1.00000000       0.00000000       1.00000000    
   0.00000000      0.575000048       1.00000000       0.00000000       1.00000000    
   0.00000000      0.625000000       1.00000000       0.00000000       1.00000000    
   0.00000000      0.675000012       1.00000000       0.00000000       1.00000000    
   0.00000000      0.725000024       1.00000000       0.00000000       1.00000000    
   0.00000000      0.774999976       1.00000000       0.00000000       1.00000000    
   0.00000000      0.825000048       1.00000000       0.00000000       1.00000000    
   0.00000000      0.875000000       1.00000000       0.00000000       1.00000000    
   0.00000000      0.925000012       1.00000000       0.00000000       1.00000000    
   0.00000000      0.975000024       1.00000000       0.00000000       1.00000000    
   0.00000000       1.00000000       1.00000000       0.00000000       1.00000000    
   8.33333358E-02   0.00000000      0.500000000       0.00000000      0.500000000    
   8.33333358E-02   2.50000004E-02  0.674364567       9.53280404E-02  0.681069016    
   8.33333358E-02   7.50000030E-02  0.870052516      0.227095306      0.899201691    
   8.33333358E-02  0.125000000      0.977174938      0.267839611       1.01321709    
   8.33333358E-02  0.175000012       1.03229618      0.259914786       1.06451452    
   8.33333358E-02  0.224999994       1.05721223      0.227980763       1.08151424    
   8.33333358E-02  0.275000006       1.06534028      0.186134338       1.08147860    
   8.33333358E-02  0.324999988       1.06503665      0.141941071       1.07445359    
   8.33333358E-02  0.375000000       1.06145859       9.89125520E-02   1.06605721    
   8.33333358E-02  0.425000012       1.05768609       5.80890030E-02   1.05928004    
   8.33333358E-02  0.475000024       1.05542552       1.90751832E-02   1.05559790    
   8.33333358E-02  0.524999976       1.05543089      -1.92621145E-02   1.05560660    
   8.33333358E-02  0.575000048       1.05770290      -5.82823977E-02   1.05930746    
   8.33333358E-02  0.625000000       1.06148720      -9.91191566E-02   1.06610489    
   8.33333358E-02  0.675000012       1.06507599     -0.142167836       1.07452250    
   8.33333358E-02  0.725000024       1.06538928     -0.186387122       1.08157039    
   8.33333358E-02  0.774999976       1.05726874     -0.228264049       1.08162916    
   8.33333358E-02  0.825000048       1.03235662     -0.260231376       1.06465042    
   8.33333358E-02  0.875000000      0.977234125     -0.268188775       1.01336658    
   8.33333358E-02  0.925000012      0.870103300     -0.227467000      0.899344802    
   8.33333358E-02  0.975000024      0.674397051      -9.55173895E-02  0.681127727    
   8.33333358E-02   1.00000000      0.500000000       0.00000000      0.500000000    
  0.250000000       0.00000000       0.00000000       0.00000000       0.00000000    
  0.250000000       2.50000004E-02  0.272740632       2.04211120E-02  0.273504078    
  0.250000000       7.50000030E-02  0.633074164       7.03903288E-02  0.636975408    
  0.250000000      0.125000000      0.866891503      0.123616844      0.875660896    
  0.250000000      0.175000012       1.01325285      0.160138831       1.02582932    
  0.250000000      0.224999994       1.10000229      0.174751312       1.11379671    
  0.250000000      0.275000006       1.14747739      0.168923825       1.15984464    
  0.250000000      0.324999988       1.17049909      0.146642432       1.17964911    
  0.250000000      0.375000000       1.17962956      0.112386450       1.18497109    
  0.250000000      0.425000012       1.18205380       7.02536553E-02   1.18413973    
  0.250000000      0.475000024       1.18221402       2.37255935E-02   1.18245208    
  0.250000000      0.524999976       1.18222618      -2.42073722E-02   1.18247402    
  0.250000000      0.575000048       1.18209100      -7.07369596E-02   1.18420553    
  0.250000000      0.625000000       1.17969060     -0.112871975       1.18507802    
  0.250000000      0.675000012       1.17057967     -0.147129774       1.17978978    
  0.250000000      0.725000024       1.14757204     -0.169410959       1.16000938    
  0.250000000      0.774999976       1.10010386     -0.175233871       1.11397278    
  0.250000000      0.825000048       1.01335359     -0.160610855       1.02600265    
  0.250000000      0.875000000      0.866981983     -0.124072298      0.875814855    
  0.250000000      0.925000012      0.633145690      -7.08192438E-02  0.637094021    
  0.250000000      0.975000024      0.272784740      -2.06271801E-02  0.273563504    
  0.250000000       1.00000000       0.00000000       0.00000000       0.00000000    
  0.416666687       0.00000000       0.00000000       0.00000000       0.00000000    
  0.416666687       2.50000004E-02  0.176264644       3.77053651E-03  0.176304966    
  0.416666687       7.50000030E-02  0.480987102       1.84967574E-02  0.481342614    
  0.416666687      0.125000000      0.728140771       4.22810428E-02  0.729367316    
  0.416666687      0.175000012      0.918365121       6.56157658E-02  0.920706213    
  0.416666687      0.224999994       1.05796099       8.18496197E-02   1.06112242    
  0.416666687      0.275000006       1.15568805       8.75953734E-02   1.15900290    
  0.416666687      0.324999988       1.22073901       8.21113437E-02   1.22349739    
  0.416666687      0.375000000       1.26148343       6.65092319E-02   1.26323545    
  0.416666687      0.425000012       1.28469586       4.30633985E-02   1.28541744    
  0.416666687      0.475000024       1.29509807       1.47036677E-02   1.29518151    
  0.416666687      0.524999976       1.29510689      -1.53227057E-02   1.29519761    
  0.416666687      0.575000048       1.28472209      -4.36765850E-02   1.28546429    
  0.416666687      0.625000000       1.26152420      -6.71108142E-02   1.26330805    
  0.416666687      0.675000012       1.22078717      -8.26951414E-02   1.22358477    
  0.416666687      0.725000024       1.15573597      -8.81555676E-02   1.15909314    
  0.416666687      0.774999976       1.05800176      -8.23813081E-02   1.06120420    
  0.416666687      0.825000048      0.918392897      -6.61152303E-02  0.920769632    
  0.416666687      0.875000000      0.728154123      -4.27470803E-02  0.729407787    
  0.416666687      0.925000012      0.480991125      -1.89268030E-02  0.481363356    
  0.416666687      0.975000024      0.176271364      -3.97585146E-03  0.176316202    
  0.416666687       1.00000000       0.00000000       0.00000000       0.00000000    
  0.583333373       0.00000000       0.00000000       0.00000000       0.00000000    
  0.583333373       2.50000004E-02  0.148557380      -2.09595106E-04  0.148557529    
  0.583333373       7.50000030E-02  0.417245239       2.62521300E-03  0.417253494    
  0.583333373      0.125000000      0.651965976       1.05749369E-02  0.652051747    
  0.583333373      0.175000012      0.849550903       2.05014534E-02  0.849798262    
  0.583333373      0.224999994       1.00960851       2.91845985E-02   1.01003027    
  0.583333373      0.275000006       1.13410664       3.41872796E-02   1.13462186    
  0.583333373      0.324999988       1.22654843       3.41716781E-02   1.22702432    
  0.583333373      0.375000000       1.29105783       2.89276801E-02   1.29138184    
  0.583333373      0.425000012       1.33153152       1.92195978E-02   1.33167028    
  0.583333373      0.475000024       1.35095930       6.53930800E-03   1.35097516    
  0.583333373      0.524999976       1.35095656      -7.17845885E-03   1.35097563    
  0.583333373      0.575000048       1.33152235      -1.98503062E-02   1.33167028    
  0.583333373      0.625000000       1.29103923      -2.95414515E-02   1.29137719    
  0.583333373      0.675000012       1.22651649      -3.47612165E-02   1.22700894    
  0.583333373      0.725000024       1.13405824      -3.47470790E-02   1.13459039    
  0.583333373      0.774999976       1.00954366      -2.97112539E-02   1.00998080    
  0.583333373      0.825000048      0.849471807      -2.09937096E-02  0.849731207    
  0.583333373      0.875000000      0.651883245      -1.10341460E-02  0.651976585    
  0.583333373      0.925000012      0.417178690      -3.05080181E-03  0.417189837    
  0.583333373      0.975000024      0.148533970       5.70203701E-06  0.148533970    
  0.583333373       1.00000000       0.00000000       0.00000000       0.00000000    
  0.750000000       0.00000000       0.00000000       0.00000000       0.00000000    
  0.750000000       2.50000004E-02  0.138198301      -1.43364980E-03  0.138205737    
  0.750000000       7.50000030E-02  0.389789641      -2.79759336E-03  0.389799684    
  0.750000000      0.125000000      0.614284277      -1.44777703E-03  0.614286005    
  0.750000000      0.175000012      0.809621453       1.67261565E-03  0.809623182    
  0.750000000      0.224999994      0.974564433       5.24787977E-03  0.974578559    
  0.750000000      0.275000006       1.10895324       8.07214156E-03   1.10898268    
  0.750000000      0.324999988       1.21360445       9.28530283E-03   1.21363997    
  0.750000000      0.375000000       1.28996933       8.50786641E-03   1.28999734    
  0.750000000      0.425000012       1.33968818       5.86448237E-03   1.33970106    
  0.750000000      0.475000024       1.36414647       1.91068579E-03   1.36414778    
  0.750000000      0.524999976       1.36413014      -2.51069898E-03   1.36413240    
  0.750000000      0.575000048       1.33963847      -6.45660562E-03   1.33965409    
  0.750000000      0.625000000       1.28988576      -9.08510573E-03   1.28991771    
  0.750000000      0.675000012       1.21348786      -9.84154455E-03   1.21352780    
  0.750000000      0.725000024       1.10880804      -8.60285759E-03   1.10884142    
  0.750000000      0.774999976      0.974397540      -5.75090200E-03  0.974414527    
  0.750000000      0.825000048      0.809445381      -2.14759819E-03  0.809448242    
  0.750000000      0.875000000      0.614119411       9.99445911E-04  0.614120245    
  0.750000000      0.925000012      0.389665604       2.37719668E-03  0.389672846    
  0.750000000      0.975000024      0.138151959       1.23106502E-03  0.138157442    
  0.750000000       1.00000000       0.00000000       0.00000000       0.00000000    
  0.916666687       0.00000000       0.00000000       0.00000000       0.00000000    
  0.916666687       2.50000004E-02  0.133295685      -1.84665143E-03  0.133308485    
  0.916666687       7.50000030E-02  0.375889182      -4.71566292E-03  0.375918746    
  0.916666687      0.125000000      0.593539357      -5.91385318E-03  0.593568802    
  0.916666687      0.175000012      0.785035193      -5.67167252E-03  0.785055697    
  0.916666687      0.224999994      0.949312568      -4.52947896E-03  0.949323356    
  0.916666687      0.275000006       1.08572745      -3.04283970E-03   1.08573174    
  0.916666687      0.324999988       1.19412875      -1.67745561E-03   1.19412994    
  0.916666687      0.375000000       1.27476549      -7.27730279E-04   1.27476573    
  0.916666687      0.425000012       1.32810640      -2.80119915E-04   1.32810652    
  0.916666687      0.475000024       1.35462010      -2.25489406E-04   1.35462010    
  0.916666687      0.524999976       1.35459208      -3.16166144E-04   1.35459208    
  0.916666687      0.575000048       1.32802367      -2.55642924E-04   1.32802367    
  0.916666687      0.625000000       1.27463043       2.02666721E-04   1.27463043    
  0.916666687      0.675000012       1.19394565       1.16708095E-03   1.19394624    
  0.916666687      0.725000024       1.08550692       2.54981034E-03   1.08550990    
  0.916666687      0.774999976      0.949068308       4.05496638E-03  0.949077010    
  0.916666687      0.825000048      0.784787476       5.21600898E-03  0.784804821    
  0.916666687      0.875000000      0.593315423       5.47642913E-03  0.593340695    
  0.916666687      0.925000012      0.375724733       4.29966487E-03  0.375749350    
  0.916666687      0.975000024      0.133233547       1.64498715E-03  0.133243695    
  0.916666687       1.00000000       0.00000000       0.00000000       0.00000000    
   1.08333337       0.00000000       0.00000000       0.00000000       0.00000000    
   1.08333337       2.50000004E-02  0.130213559      -1.98026188E-03  0.130228609    
   1.08333337       7.50000030E-02  0.366885960      -5.36032859E-03  0.366925091    
   1.08333337      0.125000000      0.579426765      -7.46978913E-03  0.579474926    
   1.08333337      0.175000012      0.767043233      -8.31756927E-03  0.767088354    
   1.08333337      0.224999994      0.928866208      -8.16261023E-03  0.928902090    
   1.08333337      0.275000006       1.06419313      -7.28772674E-03   1.06421804    
   1.08333337      0.324999988       1.17258120      -5.96073270E-03   1.17259634    
   1.08333337      0.375000000       1.25383472      -4.39896435E-03   1.25384235    
   1.08333337      0.425000012       1.30793405      -2.74761603E-03   1.30793691    
   1.08333337      0.475000024       1.33493853      -1.07845501E-03   1.33493900    
   1.08333337      0.524999976       1.33490312       5.91215852E-04   1.33490324    
   1.08333337      0.575000048       1.30782962       2.26363097E-03   1.30783165    
   1.08333337      0.625000000       1.25366592       3.92106315E-03   1.25367212    
   1.08333337      0.675000012       1.17235589       5.49111702E-03   1.17236876    
   1.08333337      0.725000024       1.06392503       6.82771485E-03   1.06394696    
   1.08333337      0.774999976      0.928573847       7.71309435E-03  0.928605855    
   1.08333337      0.825000048      0.766751528       7.87907653E-03  0.766792059    
   1.08333337      0.875000000      0.579167128       7.04221893E-03  0.579209924    
   1.08333337      0.925000012      0.366697669       4.94840834E-03  0.366731048    
   1.08333337      0.975000024      0.130142242       1.77945069E-03  0.130154401    
   1.08333337       1.00000000       0.00000000       0.00000000       0.00000000    
   1.25000000       0.00000000       0.00000000       0.00000000       0.00000000    
   1.25000000       2.50000004E-02  0.127696753      -2.01691641E-03  0.127712682    
   1.25000000       7.50000030E-02  0.359520376      -5.54802082E-03  0.359563202    
   1.25000000      0.125000000      0.567666173      -7.94422999E-03  0.567721784    
   1.25000000      0.175000012      0.751538336      -9.15472768E-03  0.751594067    
   1.25000000      0.224999994      0.910381973      -9.34842229E-03  0.910429955    
   1.25000000      0.275000006       1.04351878      -8.70983861E-03   1.04355514    
   1.25000000      0.324999988       1.15044117      -7.42577342E-03   1.15046513    
   1.25000000      0.375000000       1.23081732      -5.67313377E-03   1.23083043    
   1.25000000      0.425000012       1.28445983      -3.60976066E-03   1.28446484    
   1.25000000      0.475000024       1.31127787      -1.37155899E-03   1.31127858    
   1.25000000      0.524999976       1.31123888       9.23329615E-04   1.31123912    
   1.25000000      0.575000048       1.28434467       3.16308020E-03   1.28434861    
   1.25000000      0.625000000       1.23063147       5.22902049E-03   1.23064256    
   1.25000000      0.675000012       1.15019476       6.98538264E-03   1.15021598    
   1.25000000      0.725000024       1.04322743       8.27404018E-03   1.04326022    
   1.25000000      0.774999976      0.910066783       8.91754031E-03  0.910110474    
   1.25000000      0.825000048      0.751226366       8.72890465E-03  0.751277089    
   1.25000000      0.875000000      0.567390800       7.52377929E-03  0.567440689    
   1.25000000      0.925000012      0.359322250       5.13900351E-03  0.359358996    
   1.25000000      0.975000024      0.127622098       1.81669393E-03  0.127635032    
   1.25000000       1.00000000       0.00000000       0.00000000       0.00000000    
   1.41666675       0.00000000       0.00000000       0.00000000       0.00000000    
   1.41666675       2.50000004E-02  0.125319868      -2.02272669E-03  0.125336200    
   1.41666675       7.50000030E-02  0.352617800      -5.58498036E-03  0.352662027    
   1.41666675      0.125000000      0.556623638      -8.05045199E-03  0.556681871    
   1.41666675      0.175000012      0.736844063      -9.35848616E-03  0.736903489    
   1.41666675      0.224999994      0.892584443      -9.65415780E-03  0.892636657    
   1.41666675      0.275000006       1.02319503      -9.09190159E-03   1.02323544    
   1.41666675      0.324999988       1.12816668      -7.83123262E-03   1.12819386    
   1.41666675      0.375000000       1.20714033      -6.03260379E-03   1.20715535    
   1.41666675      0.425000012       1.25988531      -3.85441771E-03   1.25989127    
   1.41666675      0.475000024       1.28626704      -1.45104481E-03   1.28626788    
   1.41666675      0.524999976       1.28622663       1.02714950E-03   1.28622699    
   1.41666675      0.575000048       1.25976586       3.43107386E-03   1.25977051    
   1.41666675      0.625000000       1.20694864       5.60988858E-03   1.20696163    
   1.41666675      0.675000012       1.12791359       7.40925223E-03   1.12793791    
   1.41666675      0.725000024       1.02289701       8.67071748E-03   1.02293372    
   1.41666675      0.774999976      0.892263532       9.23364423E-03  0.892311335    
   1.41666675      0.825000048      0.736527741       8.93904455E-03  0.736582041    
   1.41666675      0.875000000      0.556345701       7.63343461E-03  0.556398094    
   1.41666675      0.925000012      0.352418959       5.17747458E-03  0.352456987    
   1.41666675      0.975000024      0.125245318       1.82289956E-03  0.125258580    
   1.41666675       1.00000000       0.00000000       0.00000000       0.00000000    
   1.58333349       0.00000000       0.00000000       0.00000000       0.00000000    
   1.58333349       2.50000004E-02  0.122956306      -2.02113856E-03  0.122972913    
   1.58333349       7.50000030E-02  0.345799357      -5.58194891E-03  0.345844388    
   1.58333349      0.125000000      0.545742214      -8.05219915E-03  0.545801640    
   1.58333349      0.175000012      0.722357035      -9.37361550E-03  0.722417831    
   1.58333349      0.224999994      0.874982893      -9.68856178E-03  0.875036538    
   1.58333349      0.275000006       1.00299048      -9.14512016E-03   1.00303221    
   1.58333349      0.324999988       1.10588300      -7.89511204E-03   1.10591114    
   1.58333349      0.375000000       1.18330455      -6.09320030E-03   1.18332016    
   1.58333349      0.425000012       1.23502040      -3.89621640E-03   1.23502648    
   1.58333349      0.475000024       1.26089025      -1.46219903E-03   1.26089108    
   1.58333349      0.524999976       1.26084983       1.05080020E-03   1.26085031    
   1.58333349      0.575000048       1.23490095       3.48460441E-03   1.23490584    
   1.58333349      0.625000000       1.18311334       5.68088330E-03   1.18312693    
   1.58333349      0.675000012       1.10563087       7.48207793E-03   1.10565627    
   1.58333349      0.725000024       1.00269449       8.73130932E-03   1.00273252    
   1.58333349      0.774999976      0.874664783       9.27382708E-03  0.874713957    
   1.58333349      0.825000048      0.722044110       8.95817019E-03  0.722099662    
   1.58333349      0.875000000      0.545468092       7.63722882E-03  0.545521557    
   1.58333349      0.925000012      0.345603853       5.17509412E-03  0.345642596    
   1.58333349      0.975000024      0.122883350       1.82137382E-03  0.122896850    
   1.58333349       1.00000000       0.00000000       0.00000000       0.00000000    
   1.75000000       0.00000000       0.00000000       0.00000000       0.00000000    
   1.75000000       2.50000004E-02  0.120578349      -2.01875879E-03  0.120595247    
   1.75000000       7.50000030E-02  0.338967025      -5.57326991E-03  0.339012831    
   1.75000000      0.125000000      0.534863472      -8.03618133E-03  0.534923851    
   1.75000000      0.175000012      0.707892060      -9.35246050E-03  0.707953811    
   1.75000000      0.224999994      0.857415259      -9.66577604E-03  0.857469738    
   1.75000000      0.275000006      0.982817531      -9.12399124E-03  0.982859910    
   1.75000000      0.324999988       1.08361340      -7.87784997E-03   1.08364201    
   1.75000000      0.375000000       1.15945649      -6.08060043E-03   1.15947247    
   1.75000000      0.425000012       1.21011758      -3.88813531E-03   1.21012378    
   1.75000000      0.475000024       1.23546004      -1.45815068E-03   1.23546088    
   1.75000000      0.524999976       1.23542023       1.05105643E-03   1.23542070    
   1.75000000      0.575000048       1.21000051       3.48060741E-03   1.21000552    
   1.75000000      0.625000000       1.15926886       5.67190163E-03   1.15928268    
   1.75000000      0.675000012       1.08336604       7.46762939E-03   1.08339179    
   1.75000000      0.725000024      0.982527256       8.71210825E-03  0.982565880    
   1.75000000      0.774999976      0.857103586       9.25216638E-03  0.857153475    
   1.75000000      0.825000048      0.707585871       8.93767551E-03  0.707642317    
   1.75000000      0.875000000      0.534595370       7.62197189E-03  0.534649670    
   1.75000000      0.925000012      0.338775903       5.16710430E-03  0.338815302    
   1.75000000      0.975000024      0.120506980       1.81924051E-03  0.120520711    
   1.75000000       1.00000000       0.00000000       0.00000000       0.00000000    
   1.91666675       0.00000000       0.00000000       0.00000000       0.00000000    
   1.91666675       2.50000004E-02  0.118185490      -2.01754342E-03  0.118202709    
   1.91666675       7.50000030E-02  0.332108259      -5.56778908E-03  0.332154930    
   1.91666675      0.125000000      0.523958445      -8.02415144E-03  0.524019837    
   1.91666675      0.175000012      0.693408549      -9.33406781E-03  0.693471372    
   1.91666675      0.224999994      0.839839935      -9.64309834E-03  0.839895308    
   1.91666675      0.275000006      0.962647378      -9.09980386E-03  0.962690353    
   1.91666675      0.324999988       1.06135440      -7.85484351E-03   1.06138349    
   1.91666675      0.375000000       1.13562322      -6.06167223E-03   1.13563943    
   1.91666675      0.425000012       1.18523169      -3.87583626E-03   1.18523800    
   1.91666675      0.475000024       1.21004713      -1.45399710E-03   1.21004808    
   1.91666675      0.524999976       1.21000826       1.04653637E-03   1.21000874    
   1.91666675      0.575000048       1.18511760       3.46817193E-03   1.18512273    
   1.91666675      0.625000000       1.13544035       5.65333851E-03   1.13545442    
   1.91666675      0.675000012       1.06111360       7.44494749E-03   1.06113970    
   1.91666675      0.725000024      0.962364793       8.68788175E-03  0.962404013    
   1.91666675      0.774999976      0.839536667       9.22948495E-03  0.839587390    
   1.91666675      0.825000048      0.693110824       8.91940854E-03  0.693168223    
   1.91666675      0.875000000      0.523697853       7.60974549E-03  0.523753166    
   1.91666675      0.925000012      0.331922412       5.16109914E-03  0.331962526    
   1.91666675      0.975000024      0.118116088       1.81777147E-03  0.118130073    
   1.91666675       1.00000000       0.00000000       0.00000000       0.00000000    
   2.08333349       0.00000000       0.00000000       0.00000000       0.00000000    
   2.08333349       2.50000004E-02  0.115782484      -2.01662770E-03  0.115800045    
   2.08333349       7.50000030E-02  0.325231075      -5.56446100E-03  0.325278670    
   2.08333349      0.125000000      0.513033390      -8.01742822E-03  0.513096035    
   2.08333349      0.175000012      0.678907752      -9.32389684E-03  0.678971767    
   2.08333349      0.224999994      0.822253227      -9.63022746E-03  0.822309613    
   2.08333349      0.275000006      0.942473471      -9.08562168E-03  0.942517281    
   2.08333349      0.324999988       1.03909993      -7.84151535E-03   1.03912961    
   2.08333349      0.375000000       1.11180186      -6.05105981E-03   1.11181831    
   2.08333349      0.425000012       1.16036272      -3.86912026E-03   1.16036916    
   2.08333349      0.475000024       1.18465376      -1.45191699E-03   1.18465459    
   2.08333349      0.524999976       1.18461609       1.04370771E-03   1.18461657    
   2.08333349      0.575000048       1.16025162       3.46051203E-03   1.16025674    
   2.08333349      0.625000000       1.11162376       5.64144179E-03   1.11163807    
   2.08333349      0.675000012       1.03886557       7.43054599E-03   1.03889215    
   2.08333349      0.725000024      0.942198873       8.67309980E-03  0.942238808    
   2.08333349      0.774999976      0.821958542       9.21600685E-03  0.822010219    
   2.08333349      0.825000048      0.678618550       8.90850276E-03  0.678677022    
   2.08333349      0.875000000      0.512780666       7.60232843E-03  0.512836993    
   2.08333349      0.925000012      0.325051248       5.15746232E-03  0.325092167    
   2.08333349      0.975000024      0.115715995       1.81685842E-03  0.115730256    
   2.08333349       1.00000000       0.00000000       0.00000000       0.00000000    
   2.25000000       0.00000000       0.00000000       0.00000000       0.00000000    
   2.25000000       2.50000004E-02  0.113374963      -2.01622047E-03  0.113392889    
   2.25000000       7.50000030E-02  0.318344891      -5.56285167E-03  0.318393469    
   2.25000000      0.125000000      0.502098083      -8.01439583E-03  0.502162039    
   2.25000000      0.175000012      0.664397478      -9.31956340E-03  0.664462805    
   2.25000000      0.224999994      0.804659605      -9.62462835E-03  0.804717183    
   2.25000000      0.275000006      0.922296643      -9.07920860E-03  0.922341347    
   2.25000000      0.324999988       1.01684737      -7.83506967E-03   1.01687753    
   2.25000000      0.375000000       1.08798718      -6.04571449E-03   1.08800399    
   2.25000000      0.425000012       1.13550377      -3.86573281E-03   1.13551033    
   2.25000000      0.475000024       1.15927243      -1.45079941E-03   1.15927339    
   2.25000000      0.524999976       1.15923548       1.04214740E-03   1.15923595    
   2.25000000      0.575000048       1.13539529       3.45646124E-03   1.13540053    
   2.25000000      0.625000000       1.08781338       5.63579798E-03   1.08782792    
   2.25000000      0.675000012       1.01661897       7.42390286E-03   1.01664603    
   2.25000000      0.725000024      0.922029018       8.66624154E-03  0.922069728    
   2.25000000      0.774999976      0.804372191       9.21004824E-03  0.804424882    
   2.25000000      0.825000048      0.664115429       8.90418142E-03  0.664175093    
   2.25000000      0.875000000      0.501851618       7.59980734E-03  0.501909137    
   2.25000000      0.925000012      0.318169534       5.15640061E-03  0.318211317    
   2.25000000      0.975000024      0.113310114       1.81663921E-03  0.113324679    
   2.25000000       1.00000000       0.00000000       0.00000000       0.00000000    
   2.41666698       0.00000000       0.00000000       0.00000000       0.00000000    
   2.41666698       2.50000004E-02  0.110963866      -2.01613340E-03  0.110982180    
   2.41666698       7.50000030E-02  0.311453044      -5.56240929E-03  0.311502725    
   2.41666698      0.125000000      0.491156846      -8.01317953E-03  0.491222203    
   2.41666698      0.175000012      0.649881959      -9.31758434E-03  0.649948776    
   2.41666698      0.224999994      0.787061870      -9.62235592E-03  0.787120640    
   2.41666698      0.275000006      0.902117491      -9.07708146E-03  0.902163148    
   2.41666698      0.324999988      0.994594038      -7.83331133E-03  0.994624853    
   2.41666698      0.375000000       1.06417346      -6.04421366E-03   1.06419063    
   2.41666698      0.425000012       1.11064756      -3.86473280E-03   1.11065423    
   2.41666698      0.475000024       1.13389444      -1.45073282E-03   1.13389540    
   2.41666698      0.524999976       1.13385868       1.04141852E-03   1.13385916    
   2.41666698      0.575000048       1.11054158       3.45497439E-03   1.11054695    
   2.41666698      0.625000000       1.06400347       5.63348085E-03   1.06401837    
   2.41666698      0.675000012      0.994371176       7.42132636E-03  0.994398892    
   2.41666698      0.725000024      0.901855946       8.66374560E-03  0.901897550    
   2.41666698      0.774999976      0.786781192       9.20752436E-03  0.786835074    